/*--------------------------------*- C++ -*----------------------------------*\
  =========                 |
  \\      /  F ield         | OpenFOAM: The Open Source CFD Toolbox
   \\    /   O peration     | Website:  https://openfoam.org
    \\  /    A nd           | Version:  13
     \\/     M anipulation  |
\*---------------------------------------------------------------------------*/
FoamFile
{
    format      ascii;
    class       surfaceScalarField;
    location    "0.4";
    object      alphaPhi.water;
}
// * * * * * * * * * * * * * * * * * * * * * * * * * * * * * * * * * * * * * //

dimensions      [0 3 -1 0 0 0 0];

internalField   nonuniform List<scalar> 
4432
(
-3.24864e-06
3.24864e-06
-2.36314e-06
-8.855e-07
2.27754e-06
-4.64068e-06
8.66274e-06
-6.3852e-06
1.51809e-05
-6.5182e-06
2.08669e-05
-5.68593e-06
2.53907e-05
-4.52385e-06
2.88048e-05
-3.4141e-06
3.13114e-05
-2.50656e-06
3.31261e-05
-1.81474e-06
3.44109e-05
-1.28483e-06
3.52401e-05
-8.29146e-07
3.55713e-05
-3.31194e-07
3.51691e-05
4.02181e-07
3.35582e-05
1.61091e-06
3.01153e-05
3.44292e-06
2.39835e-05
6.1318e-06
1.45646e-05
9.41882e-06
3.15437e-06
1.14103e-05
-6.23437e-06
1.0162e-05
-1.38939e-05
7.41194e-06
-1.52574e-05
4.6165e-07
-1.65687e-05
-3.31216e-06
6.5608e-06
-2.12605e-06
-2.07161e-06
2.58542e-06
-9.35215e-06
8.97625e-06
-1.2776e-05
1.54444e-05
-1.29864e-05
2.10603e-05
-1.13018e-05
2.5524e-05
-8.98749e-06
2.89073e-05
-6.79742e-06
3.14219e-05
-5.0212e-06
3.3281e-05
-3.67381e-06
3.46366e-05
-2.64042e-06
3.55659e-05
-1.75847e-06
3.61031e-05
-8.68363e-07
3.63004e-05
2.04839e-07
3.62686e-05
1.64271e-06
3.58537e-05
3.85782e-06
3.44434e-05
7.54209e-06
3.03392e-05
1.3523e-05
2.10887e-05
2.06608e-05
6.18219e-06
2.51822e-05
-6.53276e-06
2.14646e-05
-8.97404e-06
2.12735e-06
-2.55587e-05
-3.00103e-06
9.56183e-06
-1.68903e-06
-3.38361e-06
3.09478e-06
-1.4136e-05
9.42929e-06
-1.91105e-05
1.57382e-05
-1.92953e-05
2.11564e-05
-1.672e-05
2.5444e-05
-1.32751e-05
2.87121e-05
-1.00655e-05
3.11861e-05
-7.49519e-06
3.30722e-05
-5.55998e-06
3.45061e-05
-4.0743e-06
3.55452e-05
-2.79752e-06
3.61707e-05
-1.49391e-06
3.63368e-05
3.87866e-08
3.59617e-05
2.01775e-06
3.5126e-05
4.69353e-06
3.41665e-05
8.50161e-06
3.33072e-05
1.43823e-05
3.07773e-05
2.31906e-05
2.34639e-05
3.24956e-05
1.23068e-05
3.34954e-05
3.85379e-06
1.07779e-05
-2.17205e-05
-2.59239e-06
1.21542e-05
-1.02678e-06
-4.94922e-06
3.79995e-06
-1.89627e-05
1.00207e-05
-2.53313e-05
1.60921e-05
-2.53667e-05
2.12318e-05
-2.18597e-05
2.52851e-05
-1.73284e-05
2.84155e-05
-1.31959e-05
3.08602e-05
-9.93983e-06
3.28084e-05
-7.5082e-06
3.43671e-05
-5.63301e-06
3.55656e-05
-3.996e-06
3.63749e-05
-2.30327e-06
3.67229e-05
-3.09215e-07
3.65278e-05
2.21288e-06
3.5738e-05
5.48338e-06
3.44788e-05
9.76076e-06
3.3479e-05
1.53822e-05
3.34339e-05
2.32357e-05
3.253e-05
3.33995e-05
2.69983e-05
3.90268e-05
1.48585e-05
2.29215e-05
-6.88405e-06
-2.06125e-06
1.42155e-05
-1.08231e-07
-6.90224e-06
4.64915e-06
-2.37201e-05
1.06905e-05
-3.13726e-05
1.64662e-05
-3.11425e-05
2.12738e-05
-2.66672e-05
2.5058e-05
-2.11126e-05
2.80449e-05
-1.61828e-05
3.04799e-05
-1.23749e-05
3.2525e-05
-9.55329e-06
3.42482e-05
-7.35617e-06
3.56445e-05
-5.39226e-06
3.66628e-05
-3.32162e-06
3.72296e-05
-8.76008e-07
3.72793e-05
2.16314e-06
3.6778e-05
5.98473e-06
3.57453e-05
1.07934e-05
3.44408e-05
1.66867e-05
3.39533e-05
2.37231e-05
3.47333e-05
3.26196e-05
3.27021e-05
4.10579e-05
2.08692e-05
3.47544e-05
1.39624e-05
-1.39388e-06
1.56093e-05
7.78967e-07
-9.07509e-06
5.53546e-06
-2.84766e-05
1.13351e-05
-3.71723e-05
1.67909e-05
-3.65983e-05
2.12654e-05
-3.11418e-05
2.4795e-05
-2.46422e-05
2.76685e-05
-1.90563e-05
3.0134e-05
-1.48404e-05
3.23171e-05
-1.17364e-05
3.42401e-05
-9.27914e-06
3.58599e-05
-7.01206e-06
3.71019e-05
-4.5637e-06
3.78861e-05
-1.6602e-06
3.81559e-05
1.89335e-06
3.79055e-05
6.23518e-06
3.71732e-05
1.15257e-05
3.60266e-05
1.78333e-05
3.4833e-05
2.49167e-05
3.46835e-05
3.2769e-05
3.35479e-05
4.21935e-05
2.33748e-05
4.49275e-05
3.7319e-05
-5.97686e-07
1.6207e-05
1.84412e-06
-1.15169e-05
6.41459e-06
-3.3047e-05
1.18661e-05
-4.26238e-05
1.69736e-05
-4.17057e-05
2.11413e-05
-3.53094e-05
2.44697e-05
-2.79706e-05
2.72949e-05
-2.18816e-05
2.98544e-05
-1.73999e-05
3.22285e-05
-1.41104e-05
3.43916e-05
-1.14422e-05
3.62644e-05
-8.88489e-06
3.77515e-05
-6.05085e-06
3.8766e-05
-2.67463e-06
3.92424e-05
1.41696e-06
3.91884e-05
6.28909e-06
3.86456e-05
1.20685e-05
3.77224e-05
1.87566e-05
3.63804e-05
2.62587e-05
3.51043e-05
3.40452e-05
3.34152e-05
4.38826e-05
2.52177e-05
5.31249e-05
6.25059e-05
3.80595e-07
1.58264e-05
3.19449e-06
-1.43308e-05
7.54777e-06
-3.74003e-05
1.25068e-05
-4.75828e-05
1.71409e-05
-4.63398e-05
2.09642e-05
-3.91326e-05
2.41148e-05
-3.11212e-05
2.69328e-05
-2.46995e-05
2.9619e-05
-2.00861e-05
3.22007e-05
-1.66921e-05
3.46086e-05
-1.38501e-05
3.67375e-05
-1.10138e-05
3.84789e-05
-7.79225e-06
3.97472e-05
-3.94292e-06
4.04976e-05
6.66509e-07
4.06861e-05
6.10065e-06
4.03207e-05
1.24339e-05
3.95233e-05
1.9554e-05
3.83016e-05
2.74803e-05
3.65672e-05
3.57796e-05
3.40441e-05
4.64057e-05
2.65818e-05
6.05873e-05
8.90588e-05
4.13644e-11
-9.90588e-11
4.18821e-12
0
1.40359e-13
2.10399e-12
2.17029e-15
1.27956e-13
1.53581e-17
1.9576e-15
1.73686e-19
8.43677e-18
1.83011e-22
9.44187e-20
-1.16934e-24
1.20607e-22
-1.17999e-25
7.01341e-25
-1.67335e-26
2.80677e-26
-1.62281e-26
3.11651e-27
-1.51124e-26
1.68539e-27
-1.59053e-26
5.50446e-28
-1.58509e-26
-5.77633e-27
-1.51675e-26
-1.08057e-26
-1.49642e-26
-1.62071e-26
-1.42205e-26
-4.21759e-26
-3.43695e-27
-1.57051e-25
-1.49705e-25
8.94642e-10
-5.79234e-09
1.26414e-10
0
3.84753e-12
3.93002e-11
9.76882e-14
3.56937e-12
1.18962e-15
9.05488e-14
6.82577e-18
1.13061e-15
-7.0652e-22
6.92121e-18
-7.3162e-23
2.39093e-21
-6.31313e-24
9.16458e-23
-6.11507e-25
4.16508e-24
-3.91716e-25
3.14947e-25
-5.31647e-25
1.37927e-25
-3.71246e-25
5.63974e-26
-2.33137e-25
-6.73735e-26
-2.48168e-25
-1.42832e-25
-3.57393e-25
-3.29874e-25
-8.99782e-25
-9.55926e-25
-6.76866e-26
-2.75047e-24
-4.19094e-25
1.30667e-08
-9.0409e-08
3.37312e-10
-5.52757e-09
3.08537e-11
3.18537e-10
8.00528e-13
2.99106e-11
1.23454e-14
8.06021e-13
6.34774e-17
1.28965e-14
-1.66771e-20
7.04103e-17
-1.30717e-21
5.05907e-20
-1.12902e-22
2.49146e-21
-2.24558e-23
1.22271e-22
-3.52742e-23
2.16141e-23
-7.79221e-23
2.39593e-23
-7.44418e-23
1.19385e-23
-4.78051e-23
-2.71108e-23
-3.68116e-23
-4.21158e-23
-3.57969e-23
-5.18786e-23
-6.65446e-23
-1.06767e-22
-6.91004e-24
-2.68749e-22
-4.85844e-23
1.44546e-08
-9.93187e-08
9.3956e-09
-6.68963e-08
1.26127e-10
2.39951e-09
3.4833e-12
1.33964e-10
6.86881e-14
3.54818e-12
2.90769e-16
7.20034e-14
-3.46573e-19
2.87457e-16
-1.54288e-20
3.5444e-19
-3.62498e-21
4.1036e-20
-1.75418e-21
6.18709e-21
-2.64073e-21
2.13329e-21
-6.02598e-21
2.40073e-21
-8.41964e-21
1.44294e-21
-6.24322e-21
-4.87029e-21
-3.0568e-21
-9.19036e-21
-2.38674e-21
-6.90072e-21
-3.23546e-21
-7.35669e-21
-4.55562e-22
-1.61192e-20
-3.9374e-21
7.20946e-09
-9.81505e-08
2.92264e-08
-7.9325e-08
1.93927e-10
6.25433e-09
4.63937e-12
2.94594e-10
1.14354e-13
7.42757e-12
4.31101e-16
1.8072e-13
-3.30738e-18
6.76854e-16
-3.91966e-19
2.93974e-18
-2.62172e-19
1.59303e-18
-1.16569e-19
5.48409e-19
-1.35239e-19
1.61552e-19
-2.98554e-19
1.22361e-19
-4.12299e-19
9.36896e-20
-3.44667e-19
-1.63475e-19
-2.01809e-19
-3.56925e-19
-1.03945e-19
-6.68417e-19
-1.15082e-19
-3.79971e-19
-2.19927e-20
-7.05532e-19
-2.36457e-19
5.99481e-09
-8.54871e-09
7.52953e-09
-4.75203e-09
3.22698e-10
4.44748e-09
0
3.05069e-10
0
6.16969e-12
0
1.54535e-13
-6.1105e-18
5.11701e-16
-1.56755e-17
5.62528e-17
-7.2457e-18
4.20995e-17
-3.26302e-18
1.59491e-17
-3.36654e-18
4.59136e-18
-7.15754e-18
2.90891e-18
-7.17069e-18
2.55874e-18
-5.03745e-18
-1.75129e-18
-4.53229e-18
-3.22217e-18
-3.11747e-18
-6.01202e-18
-3.16813e-18
-1.46952e-17
-8.25328e-19
-2.3099e-17
-8.92432e-18
2.61445e-08
-9.46677e-08
3.7457e-09
-7.20072e-09
3.80488e-10
4.02131e-09
0
4.80113e-10
0
6.18899e-12
8.80692e-16
1.51073e-13
-1.4939e-16
7.66972e-16
-3.41939e-16
9.98391e-16
-5.9483e-17
9.35948e-16
-5.33214e-17
3.40388e-16
-3.81207e-17
5.55142e-17
-9.41777e-17
3.69253e-17
-8.35934e-17
5.71422e-17
-5.10613e-17
-2.02892e-17
-8.00559e-17
-4.28429e-17
-5.96826e-17
-1.50679e-17
-6.37866e-17
-1.88056e-16
-2.30651e-17
-3.60796e-16
-1.26063e-16
1.07489e-07
-3.0569e-07
1.89142e-08
-2.12124e-07
0
9.16781e-09
0
1.7975e-10
0
5.72827e-12
8.0715e-16
1.44323e-13
-6.34601e-17
9.5741e-16
-1.05007e-16
3.59376e-16
-3.61036e-16
5.11843e-16
-6.38782e-17
7.6198e-16
-5.79108e-16
6.38154e-16
-1.77729e-15
5.01569e-16
-1.69998e-15
1.71952e-15
-1.32479e-15
0
-2.65332e-15
0
-9.87721e-16
-1.2247e-15
-8.66431e-16
-7.51891e-16
-5.65124e-16
-2.23681e-15
-2.1964e-15
5.58092e-06
1.02455e-05
1.42502e-05
-2.30001e-05
2.35473e-05
-4.66962e-05
3.16617e-05
-5.56951e-05
3.87392e-05
-5.34151e-05
4.51323e-05
-4.55245e-05
5.12272e-05
-3.72152e-05
5.73359e-05
-3.08074e-05
6.35127e-05
-2.62623e-05
6.95808e-05
-2.27598e-05
7.5257e-05
-1.95259e-05
8.0272e-05
-1.60284e-05
8.44262e-05
-1.1946e-05
8.75919e-05
-7.10825e-06
8.97479e-05
-1.4893e-06
9.0957e-05
4.89155e-06
9.10701e-05
1.23208e-05
9.01689e-05
2.04552e-05
8.85078e-05
2.91414e-05
8.60186e-05
3.82688e-05
8.358e-05
4.88443e-05
8.45021e-05
5.96653e-05
7.9044e-05
9.4537e-05
1.40015e-05
-3.75593e-06
3.08583e-05
-3.9853e-05
4.05669e-05
-5.6382e-05
4.29693e-05
-5.8064e-05
4.41523e-05
-5.45612e-05
4.75046e-05
-4.88533e-05
5.30855e-05
-4.27757e-05
5.99253e-05
-3.76357e-05
6.71941e-05
-3.35188e-05
7.42954e-05
-2.98492e-05
8.07381e-05
-2.59521e-05
8.61633e-05
-2.14309e-05
9.04285e-05
-1.61836e-05
9.36455e-05
-1.0297e-05
9.5938e-05
-3.76318e-06
9.71651e-05
3.66444e-06
9.75482e-05
1.19378e-05
9.73175e-05
2.06858e-05
9.7156e-05
2.93027e-05
9.72898e-05
3.81349e-05
9.85632e-05
4.75708e-05
0.000102535
5.56936e-05
6.79914e-05
0.000113603
2.50036e-05
-2.87575e-05
4.68436e-05
-5.126e-05
4.45943e-05
-2.57851e-05
3.99911e-05
-1.96177e-05
3.62297e-05
-2.0066e-05
3.6258e-05
-1.97761e-05
4.03031e-05
-1.84381e-05
4.71147e-05
-1.75736e-05
5.4948e-05
-1.68556e-05
6.30569e-05
-1.60385e-05
7.12807e-05
-1.48594e-05
7.96223e-05
-1.3242e-05
8.78938e-05
-1.10785e-05
9.54853e-05
-8.0686e-06
0.00010152
-3.75095e-06
0.000104244
2.53215e-06
0.000103353
1.28285e-05
0.000101672
2.23672e-05
0.000101687
2.92875e-05
0.000102928
3.68934e-05
0.000104872
4.56275e-05
0.000106871
5.36946e-05
6.17168e-05
0.000113145
2.20454e-05
-1.63693e-05
6.76196e-06
-4.96984e-07
3.6183e-06
-4.85639e-09
2.95317e-06
-1.85676e-11
2.55308e-06
-5.2223e-18
1.90899e-06
-3.5341e-17
1.84785e-06
-1.13883e-16
2.23418e-06
-4.4055e-16
2.99406e-06
-5.79346e-15
4.02537e-06
-7.9913e-14
5.50639e-06
-1.41935e-12
7.87744e-06
-7.2842e-12
1.17908e-05
-1.00809e-12
1.82655e-05
-4.42202e-12
2.87406e-05
-4.58546e-10
4.5372e-05
-3.09274e-08
7.22724e-05
2.11326e-07
0.000100149
4.90398e-06
0.000112053
1.84864e-05
0.000114597
3.43487e-05
0.00011317
4.70545e-05
0.000112907
5.3958e-05
5.95687e-05
0.000115056
5.01859e-07
-4.93005e-23
4.87496e-09
-2.32477e-21
1.85676e-11
-6.01863e-20
-6.33431e-21
-1.15293e-18
-1.22048e-19
-6.22429e-19
-7.0827e-19
-1.49605e-17
-4.35857e-18
-9.67981e-17
-6.91701e-17
-3.81151e-16
-1.15831e-15
-4.71871e-15
-2.16792e-14
-5.96448e-14
-1.08365e-13
-1.33867e-12
-3.67838e-14
-7.45956e-12
-6.57893e-14
-1.24515e-12
-3.8077e-12
-1.01502e-12
-4.45029e-10
-1.90768e-11
-3.08906e-08
-6.3837e-10
4.78725e-07
-3.73295e-08
6.23898e-06
-2.55979e-08
2.56282e-05
7.27581e-09
5.97086e-05
5.81788e-07
9.89999e-05
6.20985e-06
0.000116256
3.15758e-05
5.24437e-05
0.000123381
-2.8165e-23
-2.48932e-23
-1.19961e-21
-1.15059e-21
-2.52689e-20
-3.6198e-20
-2.35401e-19
-9.44885e-19
-5.94078e-19
-7.29363e-18
-8.96146e-18
-8.7361e-17
-3.67843e-17
-3.24554e-16
-2.98062e-16
-5.76334e-16
0
-1.21353e-14
0
-1.8743e-13
-3.30526e-12
-4.38433e-12
-1.14386e-12
-2.63902e-11
-3.53186e-15
-6.31386e-12
-2.20781e-12
-5.62657e-13
-2.9299e-10
-7.78437e-13
-7.85025e-10
-1.66447e-09
-9.55905e-10
-3.8754e-08
8.83764e-11
-2.80186e-08
5.2605e-08
-4.72052e-08
7.56469e-07
-1.29891e-08
6.38172e-06
4.865e-08
3.44174e-05
2.1374e-07
1.10917e-06
8.04105e-05
-2.36424e-23
-2.7084e-24
-6.4375e-22
-5.32729e-22
-2.78817e-20
-3.28055e-20
-1.1008e-18
-2.02842e-18
-2.34852e-17
-4.47405e-17
-1.33225e-16
-3.15983e-16
-1.81793e-16
-6.67832e-16
0
-6.90194e-16
0
-2.10853e-14
-1.7369e-12
-2.34079e-12
-1.22932e-11
-2.43307e-11
-8.07835e-12
-2.5634e-11
-2.04259e-12
-1.66718e-11
-8.3811e-12
-4.27983e-13
-1.42216e-11
-4.10129e-13
-1.56436e-09
-3.34019e-09
2.20622e-09
-3.17691e-08
1.94644e-08
-4.74702e-08
7.24739e-08
-8.53413e-08
1.6714e-07
-1.25342e-07
2.13978e-07
-4.6936e-09
4.31965e-07
0
8.27533e-08
1.48091e-06
-3.03088e-24
-5.72325e-25
-2.62464e-22
-2.73846e-22
-3.24666e-20
-2.67815e-20
-2.71862e-18
-2.06516e-18
-5.49789e-17
-5.29913e-17
-2.01823e-16
-3.60143e-16
-2.04208e-16
-6.96411e-16
-3.48203e-16
-5.25811e-16
0
-1.06141e-14
-9.27061e-12
-8.63906e-13
-1.19745e-11
-1.64175e-11
-1.13446e-11
-2.13881e-11
-1.3945e-12
-7.03884e-12
-4.01034e-12
-4.13197e-12
-4.63949e-12
-4.53672e-12
4.84607e-09
-4.22577e-09
1.3612e-08
-4.87559e-10
3.2306e-08
-2.0159e-12
4.77634e-08
-5.64964e-08
4.95321e-08
-9.91046e-08
5.44825e-08
-1.54852e-08
3.99609e-08
3.54767e-09
1.2411e-08
1.09878e-07
-7.34088e-25
-1.26324e-25
-1.75715e-22
-9.92728e-23
-2.08944e-20
-1.30731e-20
-2.34312e-18
-1.71869e-18
-5.09006e-17
-4.73863e-17
-1.90222e-16
-3.23459e-16
-1.42216e-16
-6.30962e-16
-1.80071e-16
-4.87964e-16
0
-3.03232e-15
-1.02882e-12
-4.7755e-14
-7.24369e-12
-5.23331e-14
-2.35756e-12
-1.2191e-13
0
-4.00108e-13
0
-1.65541e-11
4.82687e-11
-1.20481e-10
4.89186e-10
-1.77712e-11
1.71026e-12
-8.2364e-14
4.35586e-15
-9.20588e-14
4.52417e-10
-5.87076e-10
3.56433e-09
-2.93924e-08
4.56321e-09
-1.71186e-08
9.04581e-09
-2.50537e-09
3.02491e-09
1.59352e-08
-1.73848e-25
-4.90428e-26
-7.50557e-23
-2.42919e-23
-9.34985e-21
-4.62797e-21
-1.32597e-18
-9.5936e-19
-2.53906e-17
-2.67948e-17
-1.41183e-16
-1.5667e-16
-1.05275e-16
-4.50201e-16
-1.95232e-16
-4.02258e-16
-1.23563e-15
-1.08901e-15
-1.63885e-15
-2.71555e-14
-2.85038e-15
-3.26273e-14
-7.38416e-14
-3.5396e-14
0
-2.36612e-13
-1.85907e-11
-2.0742e-11
1.76086e-11
-7.06496e-12
8.03651e-14
-2.42644e-13
2.30325e-16
-1.7255e-15
-5.97853e-14
-3.10539e-14
-5.61603e-10
-2.52346e-11
-6.13421e-10
-3.68514e-09
-2.28273e-09
-1.56178e-08
-3.98923e-10
-1.10924e-08
-2.74329e-09
2.86458e-09
-7.53759e-26
-3.8797e-26
-1.84423e-23
-5.02464e-24
-3.36912e-21
-1.11758e-21
-5.93916e-19
-3.41013e-19
-7.30565e-18
-1.01788e-17
-5.1156e-17
-5.0992e-17
-5.31094e-17
-1.52554e-16
-5.07005e-17
-2.59977e-16
-2.79632e-15
-3.45982e-16
-3.06827e-15
-2.44989e-14
-3.01911e-15
-5.27564e-14
0
-8.06676e-14
-1.00596e-12
-7.18566e-14
-4.80181e-13
-1.00114e-11
2.41292e-13
-2.90532e-15
3.46696e-16
-1.35949e-15
-2.19081e-16
-9.99805e-16
-3.06677e-14
-2.69538e-16
-2.51088e-11
-1.176e-13
-9.00219e-10
-1.05625e-11
-1.28886e-10
-3.88604e-10
-1.56498e-08
-6.1321e-09
-3.50309e-09
-5.62386e-09
-6.21294e-26
-4.17977e-26
-2.37963e-25
-5.26287e-25
-7.4165e-22
-2.15826e-22
-1.75868e-19
-8.36397e-20
-1.83281e-18
-2.64815e-18
-7.73851e-18
-1.3268e-17
-2.30917e-17
-3.96806e-17
-2.25384e-17
-1.47041e-16
-9.0423e-16
-1.30782e-16
-1.7928e-15
-8.50967e-15
-4.13265e-15
-5.15827e-14
-9.0435e-16
-1.49972e-13
-3.18326e-14
-1.62052e-13
-1.14638e-17
-4.23595e-14
-7.07606e-18
-3.05282e-15
-3.88439e-17
-1.49887e-15
-1.79598e-17
-8.99201e-16
-2.61891e-16
-9.65496e-17
-1.17733e-13
-9.34346e-17
-1.06793e-11
-1.99286e-16
-3.99274e-10
-4.97318e-15
-1.59347e-09
-1.53066e-13
-4.25375e-12
-6.71643e-09
-1.3371e-27
-1.5016e-26
-2.77675e-26
-7.66038e-26
-1.24508e-22
-3.93674e-23
-3.30647e-20
-1.60665e-20
-3.56867e-19
-5.128e-19
-1.1722e-18
-2.49992e-18
-1.10052e-17
-9.01386e-18
-1.02044e-17
-6.62551e-17
-4.02999e-17
-1.10171e-16
-5.59529e-16
-3.36633e-16
-4.53221e-15
-1.64272e-14
-3.89713e-15
-8.57001e-14
-1.03046e-16
-1.00221e-13
-1.5188e-16
-4.82833e-14
-1.36458e-16
-9.03666e-15
-1.3857e-16
-1.65584e-15
-2.32104e-17
-7.13997e-16
-1.85237e-17
-2.17837e-16
-2.74705e-17
-6.88618e-17
-1.60726e-16
-5.71322e-17
-4.96889e-15
-1.52064e-16
-1.57742e-13
-2.39161e-16
-3.75986e-16
-4.41103e-12
-1.77872e-28
-1.40618e-27
-3.27106e-27
-9.56598e-27
-1.78905e-23
-8.59416e-24
-4.99926e-21
-2.43737e-21
-4.65425e-20
-7.64976e-20
-1.62058e-19
-3.5679e-19
-2.0153e-18
-1.89726e-18
-4.8503e-18
-2.02191e-17
-7.2451e-18
-6.6396e-17
-7.76743e-17
-2.44525e-16
-2.13788e-15
-2.51833e-15
-4.96757e-15
-1.60792e-14
-3.94381e-15
-1.55558e-14
-1.37777e-15
-1.4685e-14
-3.14968e-16
-6.56837e-15
-1.35469e-16
-7.67548e-16
-7.54925e-17
-1.54501e-16
-2.78838e-17
-5.26531e-17
-2.25023e-17
-3.16355e-17
-3.00369e-17
-4.19724e-17
-3.93015e-17
-7.75017e-17
-5.31989e-17
-1.55321e-16
-1.8966e-16
-1.53051e-16
-1.08297e-29
-1.16846e-28
-6.1069e-28
-1.2968e-27
-2.17868e-24
-2.39636e-24
-5.99057e-22
-2.90668e-22
-4.48691e-21
-8.65311e-21
-1.99034e-20
-4.06424e-20
-3.0505e-19
-3.69558e-19
-1.41187e-18
-4.96197e-18
-5.19188e-18
-2.79398e-17
-2.97267e-17
-2.0758e-16
-4.29799e-16
-3.06152e-16
-3.27936e-16
-6.62825e-18
-7.01773e-16
-8.89056e-18
-7.06542e-16
-1.81776e-16
-1.17982e-16
-1.36939e-16
-2.7472e-17
-4.14714e-17
-1.05506e-17
-1.95948e-17
-6.96749e-18
-8.04984e-18
-1.28079e-17
-3.19358e-18
-3.28819e-17
-3.99332e-18
-1.07041e-16
-9.60437e-18
-2.51716e-16
-2.92218e-17
-5.81895e-17
-1.94222e-16
-6.38395e-31
-8.75598e-30
-2.61128e-28
-2.14147e-28
-2.39917e-25
-6.0953e-25
-5.29584e-23
-2.76281e-23
-3.46171e-22
-7.22012e-22
-2.15528e-21
-3.56918e-21
-4.20121e-20
-6.43618e-20
-3.03692e-19
-1.05256e-18
-1.14073e-17
-8.62847e-18
-1.17719e-17
-2.86864e-17
-4.96033e-19
-2.14149e-17
-5.69073e-19
-7.90438e-18
-4.18826e-18
-6.62054e-18
-7.6983e-18
-4.38614e-18
-4.87007e-18
-2.78711e-18
-3.12981e-18
-2.66837e-18
-1.7761e-18
-2.11592e-18
-6.43387e-19
-8.33274e-19
-8.3878e-19
-3.57178e-19
-1.78793e-18
-6.43595e-19
-6.82106e-18
-2.60172e-18
-3.78279e-17
-9.80986e-18
-3.34693e-17
-1.15916e-16
-3.28514e-32
-5.48043e-31
-1.22431e-28
-3.077e-29
-2.56373e-26
-1.04533e-25
-3.39955e-24
-2.17295e-24
-2.07287e-23
-4.25887e-23
-2.02343e-22
-2.31366e-22
-5.69892e-21
-9.02374e-21
-1.19959e-19
-1.60756e-19
-1.00074e-18
-1.33805e-18
-1.03283e-18
-3.41676e-18
-6.68403e-19
-8.6853e-18
-6.4178e-19
-8.17488e-18
-5.19617e-19
-6.92344e-18
-2.23243e-19
-3.66033e-18
-2.47568e-19
-7.37305e-19
-2.77267e-19
-2.00877e-19
-1.6796e-19
-1.13081e-19
-7.15466e-20
-5.79823e-20
-9.7933e-20
-6.22968e-20
-3.64771e-19
-1.76362e-19
-1.96278e-18
-9.56889e-19
-1.23685e-17
-4.07298e-18
-1.65595e-17
-4.65082e-17
-1.11578e-33
-2.65473e-32
-3.06901e-29
-2.80635e-30
-2.53398e-27
-1.09196e-26
-1.53844e-25
-1.46771e-25
-9.2066e-25
-1.64768e-24
-1.6892e-23
-1.13176e-23
-7.13062e-22
-9.86798e-22
-1.63268e-20
-1.6797e-20
-5.86791e-20
-9.19475e-20
-2.70291e-19
-6.29841e-19
-5.75255e-19
-2.19915e-18
-5.68744e-19
-2.49366e-18
-4.78731e-19
-1.83708e-18
-9.28909e-20
-6.80205e-19
-2.38242e-20
-1.3417e-19
-1.5217e-20
-2.80535e-20
-7.88159e-21
-1.0313e-20
-9.67654e-21
-7.02122e-21
-1.74301e-20
-1.05276e-20
-1.02679e-19
-5.28117e-20
-6.2463e-19
-3.59735e-19
-4.73485e-18
-1.70516e-18
-8.2168e-18
-1.94732e-17
-5.68249e-36
-8.61768e-34
-3.33384e-30
-1.29054e-31
-2.13907e-28
-6.45038e-28
-4.56042e-27
-7.8805e-27
-2.75733e-26
-3.78117e-26
-1.31079e-24
-5.94475e-25
-8.18582e-23
-8.67514e-23
-6.12072e-22
-1.5003e-21
-6.37223e-21
-9.44032e-21
-4.18675e-20
-8.34173e-20
-1.57939e-19
-2.45792e-19
-1.09244e-19
-2.31359e-19
-5.17825e-20
-1.47247e-19
-1.41199e-20
-6.30816e-20
-3.43502e-21
-1.92015e-20
-1.20459e-21
-4.74519e-21
-8.42308e-22
-1.07951e-21
-1.05003e-21
-8.26995e-22
-2.98087e-21
-1.97774e-21
-2.76741e-20
-1.61686e-20
-1.85255e-19
-1.33126e-19
-1.69207e-18
-7.01903e-19
-4.11331e-18
-7.54058e-18
1.43683e-36
-2.03287e-35
-1.37714e-31
-2.32321e-33
-1.52861e-29
-1.67519e-29
-9.61379e-29
-2.366e-28
-5.13002e-28
-5.1495e-28
-8.34811e-26
-5.89665e-26
-5.20293e-24
-6.9515e-24
-4.45455e-23
-1.44181e-22
-7.33058e-22
-8.78861e-22
-6.0844e-21
-6.17856e-21
-6.86371e-21
-1.18124e-20
-6.27529e-21
-1.21792e-20
-3.75243e-21
-1.0373e-20
-1.56194e-21
-6.60345e-21
-4.95486e-22
-2.75253e-21
-9.58046e-23
-5.86164e-22
-7.9057e-23
-6.90508e-23
-1.03083e-22
-7.56713e-23
-5.2703e-22
-4.35002e-22
-6.8315e-21
-5.00289e-21
-4.87549e-20
-4.71467e-20
-5.73641e-19
-2.85332e-19
-2.32263e-18
-2.79028e-18
7.95048e-38
-1.32807e-36
-1.61441e-33
-2.38036e-36
-6.09257e-31
-3.60671e-33
-1.79823e-30
-2.23669e-31
-9.69133e-30
-9.98159e-30
-4.33416e-27
-5.52061e-27
-3.70506e-25
-5.00536e-25
-3.5032e-24
-1.27328e-23
-5.59647e-23
-8.95364e-23
-2.07755e-22
-3.00265e-22
-2.62379e-22
-7.61072e-22
-2.92762e-22
-9.48303e-22
-2.62246e-22
-8.96495e-22
-1.58588e-22
-6.66781e-22
-4.69652e-23
-3.17252e-22
-3.91301e-24
-6.9631e-23
-4.56896e-24
-9.94675e-24
-8.51266e-24
-1.47737e-23
-9.33351e-23
-1.20087e-22
-1.40838e-21
-1.5328e-21
-1.04297e-20
-1.58536e-20
-1.90068e-19
-1.23677e-19
-1.62888e-18
-1.03265e-18
8.16637e-39
-1.12556e-38
-1.56232e-38
-1.21583e-37
-3.11339e-35
-3.90878e-34
-1.3001e-33
-2.49025e-32
-4.55715e-31
-1.01931e-30
-1.81465e-28
-1.86049e-28
-1.83168e-26
-2.38042e-26
-3.24699e-25
-7.30487e-25
-1.64073e-24
-6.14042e-24
-7.46104e-24
-2.01442e-23
-1.32153e-23
-5.34219e-23
-1.50741e-23
-6.79241e-23
-1.53997e-23
-6.34576e-23
-1.06349e-23
-4.58658e-23
-3.26611e-24
-2.10026e-23
-3.47508e-25
-4.37436e-24
-4.06872e-25
-1.1799e-24
-1.09653e-24
-2.84992e-24
-1.44623e-23
-3.1969e-23
-2.00991e-22
-4.57623e-22
-1.61201e-21
-5.19295e-21
-5.30106e-20
-6.34894e-20
-1.33843e-18
-2.80177e-19
9.10881e-41
-2.26896e-41
1.76882e-40
-1.34837e-39
-1.91244e-36
-9.6122e-36
-9.01361e-35
-6.53615e-34
-7.91157e-33
-2.94972e-32
-3.37403e-30
-1.5632e-31
-4.17785e-28
-4.13103e-28
-9.72749e-27
-2.23531e-26
-4.85465e-26
-2.20222e-25
-2.20128e-25
-8.47526e-25
-3.76723e-25
-2.4403e-24
-4.08312e-25
-3.02356e-24
-3.90638e-25
-2.75851e-24
-2.49373e-25
-1.89173e-24
-6.52082e-26
-8.04722e-25
-1.32357e-26
-1.49218e-25
-1.49806e-26
-1.12982e-25
-6.07268e-26
-5.84339e-25
-7.89342e-25
-8.75823e-24
-5.85917e-24
-1.39074e-22
1.10331e-23
-1.78466e-21
2.34588e-21
-3.88053e-20
-1.12578e-18
1.28681e-19
2.29096e-43
-2.91349e-43
5.00865e-42
-4.54773e-41
-1.75015e-39
-4.15113e-39
-2.38075e-36
-7.73305e-38
-4.96724e-36
-4.04598e-36
2.22948e-35
-2.98853e-34
3.32673e-31
-1.2772e-31
3.72555e-29
-1.52395e-28
5.6327e-28
-2.58344e-27
2.95442e-27
-1.55712e-26
9.00894e-27
-4.38074e-26
1.23963e-26
-4.90922e-26
1.35933e-26
-4.35525e-26
9.51817e-27
-3.00898e-26
3.41466e-27
-1.436e-26
1.36404e-27
-5.05736e-27
1.71216e-27
-1.04541e-26
2.39087e-26
-1.41052e-25
5.42736e-25
-2.54296e-24
1.22429e-23
-4.47318e-23
2.29916e-22
-6.58155e-22
8.43852e-21
-2.40745e-20
-8.19211e-19
3.34724e-19
3.47762e-45
-3.96834e-45
2.73651e-43
-3.45502e-44
1.39333e-41
-2.97355e-42
3.12399e-40
-3.28905e-40
2.28793e-38
-2.10755e-38
2.24445e-36
-1.40992e-35
1.19166e-33
-2.28577e-34
1.74309e-30
-3.08413e-31
3.41827e-29
-6.1602e-30
2.24148e-28
-3.23537e-29
5.45383e-28
-8.9212e-29
6.69035e-28
-1.36698e-28
6.63694e-28
-1.40646e-28
4.6608e-28
-1.28434e-28
2.1403e-28
-1.00471e-28
1.54968e-28
-1.54437e-28
6.75613e-28
-1.72448e-27
1.52714e-26
-3.71325e-26
3.6243e-25
-7.99778e-25
8.26266e-24
-1.55611e-23
1.62489e-22
-2.53435e-22
8.78895e-21
-1.30453e-20
-4.646e-19
3.55482e-19
5.35989e-47
-3.74514e-48
2.54702e-46
-3.0444e-47
2.19605e-44
-7.91462e-44
3.05929e-42
-4.63405e-42
2.51753e-40
-2.52978e-40
2.05919e-37
-2.37549e-39
3.98932e-36
-1.32532e-36
6.56841e-33
-1.09383e-33
1.44718e-31
-2.82037e-32
8.01977e-31
-1.82797e-31
2.21123e-30
-6.11747e-31
3.26645e-30
-1.28278e-30
3.8719e-30
-2.02781e-30
4.02213e-30
-2.15201e-30
4.01839e-30
-2.60194e-30
1.09796e-29
-1.73811e-29
2.26488e-28
-4.11579e-28
6.37652e-27
-1.07421e-26
1.74367e-25
-2.70978e-25
4.24312e-24
-5.67425e-24
8.84088e-23
-9.70365e-23
6.1214e-21
-5.85738e-21
-2.31681e-19
2.47444e-19
5.63858e-50
-8.05973e-52
2.96872e-49
-2.49631e-51
9.11429e-46
-4.36694e-48
6.69837e-44
-3.49132e-46
4.35577e-42
-1.16548e-44
4.96791e-41
-4.82138e-43
3.526e-38
-9.24215e-41
3.41394e-35
-5.57723e-39
9.74822e-34
-1.77498e-35
6.72273e-33
-5.50422e-34
2.36118e-32
-3.6188e-33
5.27418e-32
-1.25018e-32
8.25108e-32
-2.04222e-32
1.03427e-31
-2.27054e-32
1.73013e-31
-1.15318e-31
2.37767e-30
-3.48276e-30
7.60414e-29
-1.08953e-28
2.46755e-27
-3.29826e-27
7.70694e-26
-9.28073e-26
1.96497e-24
-2.01913e-24
4.18238e-23
-3.5424e-23
3.20568e-21
-2.27348e-21
-1.04227e-19
1.42773e-19
1.35608e-53
-2.26632e-54
2.3572e-53
-5.70105e-53
6.74221e-50
-8.55506e-52
6.75684e-48
-1.53694e-49
2.76598e-46
-3.38398e-47
1.4031e-44
-7.92294e-45
3.19717e-42
-1.12222e-43
2.29586e-40
-5.72298e-43
8.58512e-37
-8.40384e-39
2.92386e-35
-1.33912e-36
2.03163e-34
-1.14502e-35
6.8072e-34
-4.40474e-35
1.07804e-33
-7.47432e-35
1.44809e-33
-4.32518e-34
1.5387e-32
-1.90965e-32
6.47559e-31
-7.97173e-31
2.50444e-29
-3.02174e-29
9.20111e-28
-9.77187e-28
3.13204e-26
-2.93391e-26
8.1443e-25
-6.53063e-25
1.75695e-23
-1.19865e-23
1.39144e-21
-7.83645e-22
-4.10213e-20
7.05189e-20
4.2405e-56
-4.93639e-59
9.17218e-55
-3.17602e-57
1.5989e-53
-3.23952e-54
3.74356e-51
-1.61594e-52
1.01046e-48
-9.62798e-51
2.76085e-46
-2.96821e-49
4.22179e-45
-6.90297e-47
2.64591e-44
-1.34888e-44
4.99645e-40
-9.62997e-43
8.83689e-38
-3.16506e-40
7.92225e-37
-5.71878e-39
2.92354e-36
-3.38362e-38
5.99399e-36
-1.76416e-36
5.73622e-35
-6.21751e-35
3.44965e-33
-3.50248e-33
1.75803e-31
-1.807e-31
8.05229e-30
-7.66151e-30
3.08867e-28
-2.50453e-28
1.10555e-26
-7.9504e-27
2.91846e-25
-1.84162e-25
6.57464e-24
-3.6984e-24
5.21183e-22
-2.38195e-22
-1.40035e-20
2.9578e-20
1.0259e-60
-7.74347e-61
6.41114e-59
-3.02123e-58
7.19535e-56
-2.05493e-56
4.61134e-54
-7.46559e-54
3.27719e-52
-1.41031e-52
1.27098e-50
-2.94513e-50
3.41952e-48
-1.44481e-48
8.07856e-46
-7.12549e-46
6.8581e-44
-8.66965e-44
2.48005e-41
-9.73197e-43
4.89472e-40
-7.723e-41
3.56857e-39
-2.79654e-39
2.43662e-37
-2.58353e-37
1.05711e-35
-9.05655e-36
7.22643e-34
-6.67956e-34
4.419e-32
-3.39941e-32
2.22545e-30
-1.58404e-30
8.5358e-29
-5.20991e-29
3.21571e-27
-1.79106e-27
8.84145e-26
-4.51031e-26
2.18135e-24
-1.03712e-24
1.67914e-22
-6.32992e-23
-4.11192e-21
1.05605e-20
1.77766e-62
-1.95726e-62
6.83166e-60
-1.06927e-59
5.16346e-58
-1.4469e-57
2.42883e-55
-8.70248e-55
5.42356e-54
-1.19306e-53
1.40117e-51
-1.04566e-51
8.21718e-50
-1.72748e-49
4.75048e-47
-4.49579e-47
6.57887e-45
-3.97949e-45
8.53801e-44
-9.51504e-44
8.32829e-42
-9.21556e-42
3.6096e-40
-2.8856e-40
4.0058e-38
-2.56019e-38
1.67766e-36
-1.44664e-36
1.47036e-34
-1.01099e-34
8.67e-33
-4.84803e-33
4.77963e-31
-2.5818e-31
1.84178e-29
-8.76105e-30
7.52803e-28
-3.41919e-28
2.25949e-26
-9.83421e-27
6.3709e-25
-2.65379e-25
4.59004e-23
-1.47284e-23
-1.03147e-21
3.15585e-21
4.82027e-64
-1.12293e-64
2.4383e-61
-4.17466e-62
3.83187e-59
-7.31836e-59
2.86168e-56
-2.84166e-56
4.65239e-55
-2.29324e-55
4.90014e-53
-1.09735e-53
1.01854e-50
-6.37794e-51
2.99694e-48
-2.50423e-49
3.04262e-46
-1.70189e-47
8.90639e-45
-3.26333e-45
1.02917e-42
-3.77847e-43
3.76846e-41
-1.73763e-41
4.06551e-39
-3.45659e-39
2.74881e-37
-2.01802e-37
2.1992e-35
-1.09486e-35
1.23108e-33
-5.69421e-34
7.74731e-32
-3.45011e-32
3.08721e-30
-1.25677e-30
1.43874e-28
-5.86352e-29
4.93862e-27
-1.95515e-27
1.62237e-25
-6.13551e-26
1.0537e-23
-3.0268e-24
-2.20978e-22
7.73604e-22
2.95255e-66
-4.32423e-66
9.78721e-64
-2.95933e-63
1.82692e-60
-2.86867e-61
8.30615e-58
-2.16048e-60
8.01596e-57
-6.13785e-58
5.12609e-55
-1.25234e-54
3.37263e-52
-2.77287e-53
1.53759e-50
-2.09348e-51
1.30901e-48
-1.82443e-48
2.87869e-46
-8.50493e-47
3.91733e-44
-1.45035e-44
2.17937e-42
-1.44483e-42
5.31381e-40
-3.88705e-40
3.57129e-38
-1.84972e-38
2.23054e-36
-9.66689e-37
1.38136e-34
-6.66274e-35
9.81352e-33
-4.11908e-33
4.21616e-31
-1.67682e-31
2.35354e-29
-9.41953e-30
9.31638e-28
-3.48351e-28
3.52003e-26
-1.22998e-26
2.02832e-24
-5.51517e-25
-4.01271e-23
1.54153e-22
1.17746e-67
-1.99828e-68
6.66078e-65
-1.41095e-65
5.98319e-63
-1.38945e-64
5.79028e-62
-1.24092e-61
2.08539e-59
-2.44015e-59
5.19712e-56
-4.65385e-56
1.28672e-54
-1.12787e-54
1.19363e-52
-1.39246e-52
1.26493e-49
-7.67474e-50
6.79085e-48
-6.73926e-48
1.39938e-45
-1.604e-45
1.65303e-43
-1.30899e-43
5.14926e-41
-1.92425e-41
2.83641e-39
-1.09421e-39
1.76356e-37
-8.3765e-38
1.46367e-35
-7.86957e-36
1.05154e-33
-4.5347e-34
5.07263e-32
-2.08473e-32
3.3951e-30
-1.33048e-30
1.47954e-28
-5.20841e-29
6.22753e-27
-2.00479e-27
3.27904e-25
-8.77244e-26
-6.07652e-24
2.48082e-23
5.36404e-70
-4.67924e-71
2.70997e-67
-1.64561e-70
2.57082e-66
-8.93482e-67
3.0759e-63
-6.40108e-63
6.99284e-61
-6.57856e-61
1.51694e-57
-5.30768e-60
4.35397e-56
-1.08679e-56
6.66548e-54
-6.08382e-54
4.19826e-51
-1.6093e-52
4.49072e-49
-2.0055e-49
1.2913e-46
-8.05352e-47
1.224e-44
-5.49187e-45
2.04896e-42
-2.71678e-43
1.39171e-40
-4.29834e-41
1.29362e-38
-5.99464e-39
1.45334e-36
-6.49033e-37
9.78e-35
-3.87505e-35
5.34952e-33
-2.01035e-33
4.04597e-31
-1.39308e-31
1.86709e-29
-6.07476e-30
8.5199e-28
-2.49488e-28
4.41636e-26
-1.17727e-26
-7.50676e-25
3.20897e-24
1.21366e-72
-1.82644e-73
2.34615e-72
-1.74104e-72
1.46499e-68
-3.90366e-68
1.23474e-64
-2.18717e-66
1.3552e-62
-2.09714e-64
1.26732e-61
-7.34628e-62
3.24341e-58
-2.00645e-59
2.14531e-55
-3.75067e-56
6.72761e-54
-7.02803e-54
1.00505e-50
-2.12354e-52
4.81812e-48
-3.2992e-49
3.85855e-46
-1.76398e-47
2.27612e-44
-7.00709e-45
4.37875e-42
-1.49723e-42
7.33778e-40
-1.85017e-40
9.43131e-38
-2.06693e-38
6.69529e-36
-1.80205e-36
4.15531e-34
-1.15963e-34
3.41734e-32
-9.02452e-33
1.77464e-30
-5.29993e-31
8.6207e-29
-2.26525e-29
4.85544e-27
-1.28204e-27
-7.41811e-26
3.30711e-25
4.38816e-75
-1.52309e-78
2.49198e-74
-2.37277e-74
5.04102e-70
-1.11738e-71
3.11454e-68
-4.54875e-70
3.3594e-66
-2.80708e-67
1.38715e-63
-3.15901e-63
4.35873e-61
-4.65346e-61
9.54795e-58
-6.82384e-59
2.19293e-55
-3.96638e-55
7.65284e-54
-3.68472e-54
1.43303e-50
-7.77051e-52
9.26382e-49
-1.95673e-49
4.62566e-46
-4.20956e-46
1.17014e-43
-3.22898e-44
1.72098e-41
-1.49447e-42
2.30044e-39
-9.29785e-41
2.42234e-37
-3.00557e-38
1.88105e-35
-3.74639e-36
1.74905e-33
-3.4415e-34
1.23514e-31
-3.28656e-32
6.23955e-30
-1.44353e-30
4.23136e-28
-1.07155e-28
-5.79193e-27
2.6722e-26
3.19569e-80
-4.85506e-83
2.9596e-76
-1.48144e-79
1.08361e-73