/*--------------------------------*- C++ -*----------------------------------*\
  =========                 |
  \\      /  F ield         | OpenFOAM: The Open Source CFD Toolbox
   \\    /   O peration     | Website:  https://openfoam.org
    \\  /    A nd           | Version:  13
     \\/     M anipulation  |
\*---------------------------------------------------------------------------*/
FoamFile
{
    format      ascii;
    class       volScalarField;
    location    "0.4";
    object      alpha.water;
}
// * * * * * * * * * * * * * * * * * * * * * * * * * * * * * * * * * * * * * //

dimensions      [];

internalField   nonuniform List<scalar> 
2268
(
1
1
1
1
1
1
1
1
1
1
1
1
1
1
1
1
1
1
1
0.951937
0.846592
0.860511
0.978291
1
1
1
1
1
1
1
1
1
1
1
1
1
1
1
1
1
1
1
0.996986
0.864979
0.929314
0.998341
1
1
1
1
1
1
1
1
1
1
1
1
1
1
1
1
1
1
1
1
0.984511
0.993869
0.998363
1
1
1
1
1
1
1
1
1
1
1
1
1
1
1
1
1
1
1
1
0.999997
0.999964
0.998412
1
1
1
1
1
1
1
1
1
1
1
1
1
1
1
1
1
1
1
1
1
1
0.998443
1
1
1
1
1
1
1
1
1
1
1
1
1
1
1
1
1
1
1
1
1
1
0.998688
1
1
1
1
1
1
1
1
1
1
1
1
1
1
1
1
1
1
1
1
1
1
0.998773
1
1
1
0.999999
0.999999
0.999999
1
1
1
1
1
1
1
1
1
1
1
1
1
1
1
1
0.998775
2.95258e-07
1.8082e-07
8.85656e-09
4.16819e-11
7.31261e-13
2.94033e-14
3.36266e-16
3.16673e-18
1.21591e-19
6.06022e-21
9.56948e-22
8.19237e-22
7.32316e-22
7.32316e-22
7.37982e-22
7.6725e-22
8.50528e-22
7.76731e-22
7.76731e-22
9.72768e-06
3.96933e-06
4.354e-07
1.28177e-09
2.89856e-11
1.86651e-13
1.75197e-16
1.0429e-16
4.63446e-18
2.68242e-19
2.99158e-20
2.15972e-20
2.74886e-20
1.22647e-20
4.07013e-21
3.61057e-21
7.1518e-21
8.22275e-21
1.05522e-21
0.00069813
9.32895e-05
1.98254e-07
1.65051e-08
3.25998e-10
1.89838e-12
2.76843e-15
1.5379e-15
8.9184e-17
5.34587e-18
1.3896e-18
2.52747e-18
3.88692e-18
2.63884e-18
1.02966e-18
6.15564e-19
8.02829e-19
9.60732e-19
2.10128e-19
0.00105119
0.000667835
1.99318e-05
7.97919e-08
1.99931e-09
1.79522e-11
2.8733e-13
8.30339e-15
1.10283e-15
1.97721e-16
1.03852e-16
1.90854e-16
3.29732e-16
3.58909e-16
1.75323e-16
6.52421e-17
5.16936e-17
6.03463e-17
1.66229e-17
0.00105244
0.00103651
0.000191096
3.85464e-07
8.62064e-09
6.85116e-11
1.90659e-13
5.33271e-14
3.31886e-14
1.38835e-14
6.54141e-15
7.86407e-15
1.57806e-14
1.78713e-14
1.23606e-14
6.298e-15
2.59344e-15
2.75234e-15
9.75028e-16
0.000487774
0.000359463
0.000214454
5.69034e-07
4.47665e-09
4.30647e-11
1.10232e-12
8.0177e-13
1.51192e-12
3.40983e-13
1.65561e-13
1.60382e-13
3.17784e-13
2.69363e-13
1.84306e-13
1.21693e-13
9.71324e-14
9.65116e-14
4.15123e-14
0.000345052
0.000143413
0.000101853
4.87036e-06
1.09353e-08
6.03114e-11
7.31132e-12
2.40048e-11
2.81009e-11
3.56244e-12
2.23005e-12
1.73668e-12
4.00084e-12
2.57767e-12
1.14911e-12
3.44658e-13
1.34101e-12
1.44408e-12
7.39725e-13
0.0011276
0.00172135
9.0307e-05
2.43316e-06
3.31423e-09
1.45915e-11
7.63048e-12
7.6407e-12
7.63099e-12
2.22506e-11
2.24576e-12
2.57383e-11
7.31711e-11
5.07915e-11
2.39588e-11
7.40398e-12
4.62508e-12
6.39719e-12
6.03961e-12
1
1
0.999988
0.999977
0.999981
0.999988
0.999993
0.999995
0.999997
0.999998
0.999997
0.999997
0.999997
0.999997
0.999998
1
1
1
1
1
1
1
0.998922
1
0.999987
0.999776
0.999657
0.999706
0.999782
0.999849
0.999891
0.999902
0.99991
0.999898
0.999862
0.999812
0.999784
0.999833
1
1
1
0.999999
0.999998
0.999999
1
0.999955
0.999993
0.961952
0.793247
0.749684
0.775282
0.779414
0.777572
0.785093
0.798222
0.812389
0.827164
0.845666
0.870993
0.904232
0.942213
0.986029
0.999999
1
1
1
1
1
1
0.746455
0.336326
0.075782
0.0698596
0.0876994
0.0787087
0.0685561
0.0704125
0.0770099
0.085553
0.0950157
0.108466
0.130139
0.16462
0.214042
0.284453
0.424565
0.65814
0.934473
1
1
1
0.999998
0.00817706
7.16504e-19
1.8443e-17
4.16299e-16
4.12712e-15
7.37151e-15
1.87891e-14
6.1284e-14
2.19257e-13
2.1668e-12
2.91141e-11
5.04945e-10
1.5814e-09
2.20715e-09
3.56699e-09
1.54551e-07
0.0027955
0.0270497
0.110882
0.278281
0.568537
0.928012
0.999997
8.83335e-20
1.08301e-19
7.1376e-19
1.84425e-17
5.11547e-15
2.89868e-13
2.07035e-12
7.4097e-12
8.39761e-11
4.87153e-10
2.09137e-08
1.6881e-07
2.63399e-08
3.56699e-09
9.93112e-07
1.16582e-05
1.21742e-05
1.99561e-05
5.49399e-05
0.000823113
0.0168241
0.130829
0.374784
4.60132e-20
1.38451e-19
2.87176e-16
1.88855e-14
4.51867e-13
4.13634e-12
1.15534e-11
1.28025e-11
2.62015e-10
1.58954e-08
3.81671e-07
5.855e-07
3.86053e-07
1.94257e-08
3.22527e-08
0.000117194
0.000424294
0.000440267
0.000763152
0.00128293
0.000967009
0.000439935
0.000376924
1.61691e-20
4.7097e-20
3.63647e-16
4.00272e-14
1.14805e-12
8.28727e-12
1.73283e-11
1.40012e-11
2.23138e-10
5.70888e-08
5.84692e-07
5.85894e-07
4.63227e-07
2.77464e-08
2.92061e-08
0.000117057
0.000440429
0.000866126
0.00111788
0.0011894
0.000979118
0.000164107
0.000126647
4.29564e-21
3.35709e-20
2.21386e-16
4.03927e-14
1.24048e-12
8.85207e-12
1.78306e-11
1.25026e-11
1.41236e-10
9.6496e-09
2.81577e-07
4.59255e-07
7.67861e-09
1.96434e-07
5.42557e-07
3.93165e-05
4.34889e-11
2.2892e-10
2.84039e-05
0.000256119
0.0001163
0.000115377
0.000114482
1.93169e-21
8.12885e-21
8.70538e-17
2.78938e-14
9.03416e-13
6.41364e-12
1.62592e-11
1.24414e-11
5.47442e-11
1.56991e-10
1.67952e-10
1.88762e-10
1.67287e-09
5.49213e-07
3.76463e-06
4.88751e-11
1.70044e-11
3.62291e-11
2.2896e-10
7.58089e-05
0.000119329
0.000131003
0.000114454
1.69809e-21
2.47907e-21
2.68211e-17
1.42164e-14
4.43621e-13
2.57875e-12
8.09063e-12
8.9443e-12
1.99209e-11
6.63453e-10
7.45179e-10
7.86076e-10
5.50919e-09
3.50115e-07
1.69756e-07
1.70045e-11
1.62942e-11
2.23623e-12
7.92812e-11
3.5811e-06
0.00022123
0.000364016
0.000559214
1.69809e-21
7.64251e-21
6.13376e-18
4.66087e-15
1.54228e-13
7.85612e-13
2.43691e-12
5.30314e-12
6.10753e-12
6.54399e-10
1.43816e-09
2.91505e-09
1.73787e-09
2.55823e-08
1.75941e-11
1.74102e-11
1.66867e-11
1.54299e-12
1.07387e-12
1.47452e-12
2.62354e-12
9.18554e-07
0.000154375
1.9297e-21
2.67373e-21
1.33008e-18
1.10606e-15
3.78197e-14
1.94116e-13
6.07796e-13
2.76634e-12
2.878e-12
1.18405e-10
1.05411e-09
3.83832e-09
3.83748e-09
6.61703e-11
6.61724e-11
3.2309e-11
1.5889e-11
1.64058e-12
1.04184e-12
9.55846e-13
1.00166e-12
1.11852e-12
1.29837e-12
4.12085e-22
4.39668e-22
3.13548e-19
2.09559e-16
7.07338e-15
3.49197e-14
1.3433e-13
1.12636e-12
2.46284e-12
6.40269e-12
2.2712e-10
1.60165e-09
2.39955e-09
9.07123e-10
2.02866e-10
3.51207e-11
1.12333e-11
4.22133e-12
1.31104e-12
9.52437e-13
9.89034e-13
1.05761e-12
1.13211e-12
3.69833e-23
4.85641e-23
9.39966e-20
3.14456e-17
1.02851e-15
4.84151e-15
2.77974e-14
3.17681e-13
1.21146e-12
5.63656e-12
3.36413e-11
1.53669e-10
1.0484e-10
1.88046e-10
1.00706e-10
1.01191e-11
1.92285e-12
6.50512e-13
4.14855e-13
9.31819e-13
1.96106e-12
4.67335e-12
7.08622e-12
3.09529e-24
4.2505e-24
3.0702e-20
3.72129e-18
1.13907e-16
5.39186e-16
5.32664e-15
7.52177e-14
4.71053e-13
4.21991e-12
4.16773e-12
1.66654e-13
1.66654e-13
9.34794e-13
1.46237e-12
5.13177e-13
2.56512e-13
1.07272e-13
4.28718e-14
5.76083e-14
1.66775e-13
6.31897e-13
2.51561e-12
2.31882e-25
6.09076e-25
7.84124e-21
3.52595e-19
9.34044e-18
4.62687e-17
9.07255e-16
1.53734e-14
1.31988e-13
4.00743e-13
3.49327e-13
2.00804e-13
1.67065e-13
9.60262e-14
3.98171e-14
3.55042e-14
2.86044e-14
1.15611e-14
5.4818e-15
1.13608e-14
5.59237e-14
2.57069e-13
1.16017e-12
1.44264e-26
1.26089e-25
1.28888e-21
2.7751e-20
5.43042e-19
2.9299e-18
1.24179e-16
2.25001e-15
1.85827e-14
4.99986e-14
1.48365e-13
2.10092e-13
1.78637e-13
8.41964e-14
1.17751e-14
2.91236e-15
1.60644e-15
8.71306e-16
1.0509e-15
3.5233e-15
2.2758e-14
1.15572e-13
6.11891e-13
6.91847e-28
1.45225e-26
1.29815e-22
1.87305e-21
2.07614e-20
1.40693e-19
1.3357e-17
2.29965e-16
1.25679e-15
9.27019e-15
3.29113e-14
6.4943e-14
2.65884e-14
9.84021e-15
2.06338e-15
4.39538e-16
1.57247e-16
1.13448e-16
1.88062e-16
1.12519e-15
8.99399e-15
5.02762e-14
3.11836e-13
2.22062e-29
7.47511e-28
7.46543e-24
9.95763e-23
4.7165e-22
7.5312e-21
1.16499e-18
2.0568e-17
1.31154e-16
1.1731e-15
3.40911e-15
3.16318e-15
2.08175e-15
9.2588e-16
2.98488e-16
7.57534e-17
1.68133e-17
1.369e-17
3.76081e-17
3.59975e-16
3.41928e-15
2.11677e-14
1.63091e-13
5.30774e-31
1.54473e-29
1.89965e-25
2.92998e-24
6.28152e-24
7.79511e-22
9.30239e-20
1.98277e-18
1.22616e-17
8.40787e-17
1.61829e-16
1.70497e-16
1.49054e-16
9.87088e-17
4.29818e-17
9.33207e-18
1.12879e-18
1.33822e-18
8.82855e-18
1.14498e-16
1.22065e-15
8.81052e-15
9.84157e-14
3.41547e-32
2.37956e-32
4.29193e-29
2.8927e-27
1.202e-25
7.19147e-23
6.61512e-21
1.72356e-19
1.23845e-18
4.09275e-18
1.05923e-17
1.34672e-17
1.29778e-17
9.89036e-18
4.83906e-18
1.09408e-18
1.68804e-19
2.76908e-19
2.52761e-18
3.55284e-17
4.10379e-16
3.99038e-15
7.19604e-14
2.77101e-34
1.2437e-33
4.73681e-30
3.27225e-28
1.33381e-26
2.33029e-24
3.07367e-22
9.63618e-21
8.24266e-20
2.7417e-19
7.38216e-19
9.51858e-19
9.03425e-19
6.64858e-19
3.11141e-19
6.65471e-20
1.96952e-20
5.41268e-20
6.7992e-19
1.06864e-17
1.35235e-16
2.14657e-15
5.8279e-14
5.5099e-37
1.3739e-35
1.11055e-31
8.14288e-30
3.71797e-28
1.95116e-27
5.22705e-24
2.87963e-22
2.87772e-21
1.12636e-20
3.28813e-20
4.12756e-20
3.82833e-20
2.67746e-20
1.16703e-20
2.24257e-21
1.86915e-21
1.13492e-20
1.87737e-19
3.25132e-18
4.6424e-17
1.29959e-15
4.55398e-14
6.97417e-39
4.62993e-37
4.7618e-35
9.54167e-34
5.03905e-32
3.82034e-30
1.60228e-27
1.93328e-24
3.31565e-23
2.02563e-22
5.76713e-22
6.55244e-22
5.91235e-22
4.17081e-22
2.04391e-22
7.55927e-23
1.78535e-22
2.77648e-21
5.4649e-20
1.04355e-18
1.69053e-17
7.54911e-16
2.90825e-14
9.2241e-41
3.47235e-40
3.47046e-38
4.0856e-36
2.63666e-34
1.79669e-31
2.86998e-30
3.89658e-27
7.85508e-26
4.16818e-25
1.16344e-24
1.81036e-24
1.8982e-24
1.77004e-24
1.42547e-24
2.39089e-24
3.10143e-23
7.3225e-22
1.71243e-20
3.58368e-19
6.31075e-18
3.70806e-16
1.46995e-14
8.42039e-44
3.06866e-43
9.25276e-40
5.73431e-38
3.14789e-36
2.9461e-35
1.65699e-32
1.37519e-29
3.57675e-28
2.34365e-27
7.94444e-27
1.69251e-26
2.72324e-26
2.94543e-26
3.7217e-26
2.87094e-25
7.53581e-24
2.10278e-22
5.68586e-21
1.26344e-19
2.30118e-18
1.51383e-16
6.70816e-15
1.76044e-47
2.55207e-47
5.04291e-44
4.27947e-42
1.4383e-40
6.00665e-39
1.14766e-36
6.96311e-35
2.23255e-31
6.99505e-30
4.65186e-29
1.62896e-28
2.69772e-28
3.07312e-28
1.74779e-27
5.89711e-26
1.97157e-24
6.2756e-23
1.86269e-21
4.2509e-20
7.89615e-19
5.39253e-17
2.7398e-15
4.78753e-50
5.83432e-49
9.90529e-48
1.87851e-45
4.15729e-43
9.8186e-41
1.38624e-39
7.19034e-39
1.0488e-34
1.6846e-32
1.45311e-31
5.64726e-31
9.8154e-31
6.18954e-30
3.00266e-28
1.32669e-26
5.2807e-25
1.76194e-23
5.51531e-22
1.28047e-20
2.48937e-19
1.70402e-17
9.72014e-16
1.01151e-54
3.38773e-53
3.76348e-50
2.01754e-48
1.18403e-46
3.8256e-45
8.56131e-43
1.72725e-40
1.25019e-38
3.94226e-36
7.21246e-35
4.46697e-34
2.45603e-32
9.19864e-31
5.41666e-29
2.87369e-27
1.2606e-25
4.20858e-24
1.38549e-22
3.34391e-21
7.11589e-20
4.72427e-18
2.97963e-16
1.54191e-56
3.27292e-54
2.47453e-52
9.81686e-50
1.80066e-48
3.82364e-46
1.89132e-44
9.2081e-42
1.13558e-39
1.26217e-38
1.0225e-36
3.8051e-35
3.63786e-33
1.31644e-31
9.91844e-30
5.07011e-28
2.43025e-26
8.13516e-25
2.89437e-23
7.5896e-22
1.84162e-20
1.14045e-18
7.81717e-17
3.7097e-58
1.10757e-55
1.77672e-53
1.12822e-50
1.51402e-49
1.28815e-47
2.25246e-45
5.62076e-43
4.93719e-41
1.23335e-39
1.21405e-37
3.81205e-36
3.51024e-34
2.04551e-32
1.40998e-30
6.81158e-29
3.71094e-27
1.27933e-25
5.15785e-24
1.53696e-22
4.33062e-21
2.40497e-19
1.74492e-17
2.04267e-60
4.4329e-58
8.69372e-55
3.45507e-52
2.77198e-51
1.40126e-49
7.77875e-47
3.01668e-45
2.16174e-43
4.02572e-41
4.70877e-39
2.23652e-37
4.66263e-35
2.70119e-33
1.44649e-31
7.6759e-30
4.69534e-28
1.734e-26
8.31293e-25
2.8359e-23
9.14761e-22
4.47701e-20
3.32002e-18
7.47108e-62
3.16325e-59
3.32767e-57
2.65259e-56
7.45689e-54
1.60307e-50
3.36604e-49
2.58021e-47
2.32573e-44
1.06079e-42
1.84665e-40
1.85302e-38
4.93767e-36
2.33361e-34
1.23231e-32
8.70635e-31
5.35114e-29
2.19906e-27
1.25406e-25
4.6705e-24
1.66687e-22
7.39679e-21
5.36033e-19
3.21887e-64
1.4692e-61
1.61788e-60
1.55232e-57
2.98177e-55
5.58778e-52
1.36206e-50
1.72822e-48
9.18658e-46
8.31163e-44
2.02075e-41
1.61912e-39
2.29208e-37
1.3195e-35
1.03302e-33
9.82122e-32
5.6044e-30
2.58252e-28
1.64899e-26
6.44024e-25
2.46923e-23
1.06967e-21
7.2551e-20
7.14875e-67
1.74556e-66
1.06757e-62
7.75108e-59
7.84565e-57
6.27486e-56
1.27904e-52
7.27375e-50
1.91627e-48
2.35504e-45
9.51601e-43
6.42413e-41
3.15185e-39
5.02919e-37
7.04133e-35
7.58176e-33
4.50958e-31
2.33026e-29
1.59959e-27
6.95628e-26
2.81087e-24
1.312e-22
8.08453e-21
2.64863e-69
1.89473e-68
4.665e-64
2.57395e-62
2.46182e-60
8.84587e-58
2.36833e-55
4.36805e-52
8.53201e-50
2.46072e-48
3.77298e-45
2.01035e-43
8.20686e-41
1.70888e-38
2.06783e-36
2.27439e-34
1.97628e-32
1.26412e-30
9.68404e-29
5.6673e-27
2.35968e-25
1.31534e-23
7.29413e-22
2.1026e-74
2.62226e-70
1.31042e-67
5.36692e-66
3.29832e-63
3.76761e-59
5.47483e-57
7.89308e-55
4.68762e-51
4.3111e-50
8.84914e-48
2.24797e-45
4.81855e-42
3.58236e-40
1.65843e-38
1.01111e-36
3.15643e-34
3.90892e-32
3.51552e-30
3.30044e-28
1.40464e-26
1.01857e-24
5.26804e-23
6.43023e-79
1.66111e-75
5.17505e-72
4.39179e-68
1.7585e-65
5.31957e-63
1.11747e-59
3.71495e-58
8.12741e-56
1.37003e-51
9.05424e-50
8.13892e-47
1.2552e-44
1.71269e-42
7.61102e-40
4.41139e-38
1.45429e-36
8.58903e-34
9.58005e-32
1.05033e-29
5.18946e-28
5.22568e-26
2.97587e-24
1.75236e-82
5.69422e-80
1.19136e-75
7.00778e-73
4.89879e-70
3.03213e-68
7.12659e-66
4.88693e-61
5.38409e-60
2.1355e-57
4.03468e-53
9.68882e-51
4.16274e-49
4.61396e-46
6.50897e-43
1.9607e-40
2.77003e-38
1.60047e-36
4.60811e-34
4.28179e-32
5.46913e-30
1.21136e-27
1.09258e-25
1.30178e-93
1.70597e-86
2.67489e-85
8.32152e-81
3.82414e-78
9.61071e-75
6.91801e-72
5.5392e-68
1.47812e-63
1.06753e-62
7.26785e-59
2.58344e-56
9.74414e-54
9.34367e-51
4.12148e-48
3.30417e-46
9.148e-43
1.37991e-39
2.99024e-37
5.80553e-35
1.03789e-32
2.16652e-30
3.37491e-28
1.1091e-107
7.49406e-102
-1.57717e-121
-9.6263e-126
3.24515e-92
6.51342e-89
1.56796e-85
5.04093e-82
5.81874e-102
5.99928e-75
9.60871e-99
3.53511e-70
3.3735e-65
3.09198e-62
2.38843e-60
3.22316e-57
3.38481e-54
3.47963e-51
4.70198e-48
3.35657e-45
1.56656e-42
2.75265e-39
7.03634e-37
0.999561
0.999987
0.784187
0.258927
0.999892
0.999996
0.999987
0.935432
0.999998
0.999997
0.999996
0.999958
0.999997
0.999997
0.999997
0.999974
0.999997
0.999997
0.999995
0.999983
0.607892
0.767961
0.936683
0.999976
0.0175872
0.0547939
0.126079
0.234213
0.000181651
0.000256115
0.000827597
0.000446334
0.000115013
0.000117717
0.000128896
0.000143261
0.000114589
0.00011468
0.000116285
0.000121561
0.000559218
0.000557922
0.000539098
0.000525417
0.00029507
0.000308797
0.00034388
0.000411557
3.27405e-12
3.24276e-11
1.33628e-05
3.26198e-05
1.30505e-12
3.39333e-12
5.77833e-12
1.47686e-11
5.08906e-12
5.11369e-12
5.18022e-12
5.73243e-12
4.84599e-12
7.77589e-12
1.14991e-11
1.55869e-11
2.56412e-12
4.34783e-12
7.19219e-12
1.09623e-11
1.42307e-12
2.48945e-12
4.30673e-12
6.71453e-12
7.59185e-13
1.35719e-12
2.41828e-12
3.95137e-12
4.17499e-13
7.66724e-13
1.40148e-12
2.38504e-12
2.69682e-13
5.11899e-13
9.82289e-13
1.6932e-12
2.10102e-13
4.07419e-13
8.23831e-13
1.39669e-12
1.77606e-13
3.48118e-13
7.26137e-13
1.23652e-12
1.42865e-13
2.82323e-13
5.92655e-13
1.05277e-12
9.19129e-14
1.82696e-13
3.75021e-13
7.22079e-13
4.62984e-14
9.24448e-14
1.87104e-13
3.78981e-13
2.10799e-14
4.22845e-14
8.69279e-14
1.58879e-13
8.57728e-15
1.73909e-14
3.5138e-14
6.79033e-14
3.03002e-15
6.16564e-15
1.23946e-14
2.95206e-14
9.26638e-16
1.85773e-15
4.1595e-15
1.29914e-14
2.41948e-16
4.82866e-16
1.37752e-15
4.69402e-15
5.37365e-17
1.11762e-16
3.99164e-16
2.16489e-15
1.0307e-17
2.34677e-17
1.12246e-16
8.07469e-16
1.73203e-18
4.63069e-18
3.13606e-17
2.7926e-16
2.58539e-19
8.92368e-19
8.34756e-18
9.30534e-17
3.44562e-20
1.67713e-19
2.06797e-18
2.73514e-17
3.96893e-21
2.89633e-20
4.42681e-19
6.81036e-18
3.54168e-22
4.13422e-21
7.52011e-20
1.32772e-18
1.97636e-23
4.25216e-22
9.0334e-21
1.82475e-19
4.92409e-25
2.48373e-23
6.23741e-22
1.50933e-20
1.70462e-26
3.77737e-25
1.39189e-23
5.28676e-22
1.85697e-34
1.298e-32
2.156e-30
2.78694e-28
0.00557439
0.00463996
2.13251e-07
1.04509e-07
1.70208e-09
1.47959e-11
8.28713e-12
7.48533e-10
3.02099e-09
1.73094e-08
9.89015e-09
2.58418e-11
1.58806e-09
1.4808e-09
6.47756e-10
2.21376e-10
8.63448e-11
1.1033e-10
1.44845e-10
0.223001
1.32272e-06
8.41571e-07
2.43555e-07
1.08992e-08
2.75069e-06
6.93328e-06
1.71942e-05
1.43717e-07
3.014e-09
2.83126e-09
2.29134e-09
1.61883e-09
6.03258e-08
2.17801e-08
5.85289e-09
1.61142e-09
1.76044e-09
3.11898e-09
0.826041
0.261372
1.3228e-06
7.79621e-07
6.14684e-05
2.80229e-07
2.1127e-06
2.83888e-06
7.42581e-08
2.40311e-07
5.71184e-06
6.85841e-07
1.27507e-06
1.71566e-06
9.67021e-07
2.42178e-07
4.87867e-08
4.20667e-08
1.01987e-07
0.999929
0.974734
0.203167
0.0238707
0.14684
2.80103e-07
2.79917e-07
3.96848e-07
1.81752e-07
5.88074e-05
3.26259e-06
7.6e-07
1.40803e-06
4.78142e-05
2.95228e-05
7.25726e-06
1.32569e-06
1.23002e-06
2.46135e-06
0.999976
0.9998
0.903207
0.669876
0.826584
0.672202
0.211249
0.201131
0.414656
0.324514
0.0738633
8.7312e-07
4.35132e-06
0.0030454
0.0003934
0.000151272
2.0068e-05
2.37504e-05
4.24857e-05
0.9998
0.999455
0.999205
0.995563
0.984907
0.980693
0.929456
0.913557
0.960692
0.955802
0.887864
0.726955
0.664263
0.481471
0.108867
0.0356835
0.000206899
0.000192908
0.000471951
0.491216
0.783573
0.93123
0.986744
0.980693
0.98086
0.980693
0.979024
0.977061
0.976598
0.976481
0.97494
0.969764
0.961537
0.961262
0.672508
0.0645128
0.00209261
0.00333772
0.00525832
0.0691893
0.18418
0.33058
0.482456
0.5921
0.660968
0.701641
0.733784
0.774582
0.84095
0.967898
0.963686
0.962023
0.961748
0.961295
0.652942
0.0713474
0.0440453
0.000172147
0.000260555
0.000620722
0.000798965
0.00371764
0.0150528
0.0307248
0.0453207
0.0586513
0.079201
0.121263
0.213344
0.390018
0.795758
0.961295
0.958581
0.955454
0.568172
0.383133
0.000131123
0.000156035
0.000226846
0.000426013
0.000572294
0.000703356
0.00125217
0.00123231
0.000221403
9.92916e-05
0.000184064
0.000982584
0.000554693
0.0514167
0.452669
0.948105
0.948772
0.896296
0.59535
0.000536962
0.000571964
0.000579862
0.000580928
0.000570167
0.000455816
0.00027758
0.000124056
8.19043e-06
1.55143e-06
4.36371e-06
1.17346e-05
4.95213e-05
0.000265537
0.00128643
0.608654
0.94264
0.93649
0.59771
0.000502979
0.000537677
0.000554924
0.000359639
8.9543e-05
4.17399e-06
9.53294e-07
2.35194e-07
3.41078e-08
4.00826e-08
7.6461e-08
2.40196e-07
1.11842e-06
9.47675e-06
0.000114257
0.257217
0.886423
0.930369
0.556038
5.90333e-05
7.43328e-05
6.2043e-05
6.53207e-06
1.23865e-07
2.28454e-08
1.30646e-08
2.57244e-09
2.8516e-08
3.05633e-08
3.03326e-08
3.38173e-08
1.13393e-07
1.07692e-06
1.72934e-05
0.0960187
0.777531
0.927266
0.509512
4.551e-08
2.21076e-08
1.13018e-08
4.85911e-09
3.21862e-09
7.6113e-10
5.85999e-10
1.78384e-09
2.07912e-07
1.68266e-07
3.0038e-08
3.0038e-08
3.24649e-08
1.51645e-07
1.08257e-05
0.0374459
0.658372
0.921811
0.459264
2.74946e-10
6.25324e-10
3.37115e-10
5.45824e-10
6.18e-10
5.88133e-10
5.75767e-10
5.71817e-10
5.70152e-10
3.47867e-07
3.60834e-06
1.03176e-06
9.02077e-08
1.06507e-06
6.20827e-05
2.87877e-05
0.588827
0.864776
0.375334
4.47634e-11
1.28267e-10
2.37665e-10
3.7204e-10
5.97928e-10
6.6921e-10
6.04712e-10
5.70098e-10
5.70135e-10
3.13364e-07
8.7848e-06
8.85596e-06
1.25733e-07
3.83359e-07
3.15851e-06
4.92774e-06
0.602548
0.65634
0.218007
4.16284e-11
1.29469e-10
1.68695e-10
2.51495e-10
7.7005e-10
2.25227e-09
2.97656e-09
2.06154e-09
5.7113e-10
5.77169e-10
5.37685e-06
8.99261e-06
7.32381e-06
1.01683e-06
1.04363e-06
0.0115797
0.639956
0.424761
0.0631765
2.33133e-11
8.23014e-11
9.73749e-11
1.20503e-10
1.24817e-09
4.29034e-09
4.44097e-09
3.91357e-09
1.24029e-09
5.78042e-10
5.83949e-10
9.02613e-06
9.0965e-06
1.08109e-06
1.92401e-06
0.0593166
0.640008
0.221738
0.0609553
1.02381e-11
4.68143e-11
8.28077e-11
1.08972e-10
3.85023e-10
1.23428e-09
1.7913e-09
2.59617e-09
2.51381e-09
8.38151e-10
8.67615e-10
6.79953e-06
9.09117e-06
1.18548e-06
3.63697e-05
0.0870152
0.638222
0.122372
0.060748
5.80939e-12
3.73519e-11
9.73923e-11
1.18977e-10
1.18979e-10
1.19189e-10
1.1356e-07
6.29182e-07
5.84709e-07
8.64135e-08
1.3709e-09
3.07304e-06
9.09837e-06
2.05708e-06
9.65249e-06
0.0659485
0.633011
0.164206
0.0607263
4.6988e-12
4.51277e-11
1.13464e-10
1.2315e-10
1.19026e-10
1.19072e-10
2.95349e-07
1.73867e-06
1.73672e-06
4.60252e-07
2.06544e-09
9.24519e-07
9.09116e-06
6.38397e-06
0.000101119
0.0151284
0.511576
0.343168
0.0607246
6.51246e-12
5.16317e-11
1.82161e-10
1.84852e-10
1.21149e-10
1.19235e-10
3.2726e-09
7.64087e-07
1.73888e-06
1.65576e-06
5.02174e-07
1.44217e-06
9.05761e-06
8.34437e-06
2.90541e-05
0.00693206
0.205001
0.360733
0.0607246
8.12529e-12
5.44956e-11
3.73021e-10
3.88063e-10
1.83201e-10
5.76706e-09
5.5384e-09
9.55848e-09
1.55918e-06
1.90189e-06
1.90234e-06
2.06314e-06
2.63851e-06
4.09621e-06
7.8903e-05
0.00280035
0.00324268
0.362068
0.0607246
6.28327e-12
5.69168e-11
4.8447e-10
4.11264e-10
1.84322e-10
4.12068e-08
4.80618e-07
4.8988e-07
1.07538e-06
1.90041e-06
1.90047e-06
7.86921e-07
3.13535e-07
8.2969e-07
3.64529e-05
0.000279824
0.00257371
0.361454
0.266096
2.1886e-12
6.84487e-11
5.1205e-10
4.48947e-10
1.94495e-10
1.95858e-10
1.3899e-06
1.62726e-06
1.62721e-06
1.1835e-06
1.15325e-06
4.99975e-07
2.54045e-07
3.22082e-07
6.15243e-06
2.01024e-05
0.0036659
0.181713
0.282608
8.97906e-13
8.89178e-11
5.18985e-10
6.37276e-10
2.68588e-10
1.96125e-10
1.52306e-07
1.42274e-06
1.62725e-06
1.20513e-06
3.60449e-07
3.32301e-07
1.86346e-07
3.36183e-07
3.92061e-06
1.39723e-05
0.000213678
0.060087
0.28259
2.28796e-12
5.92486e-11
5.05047e-10
8.29007e-10
5.01628e-10
1.99127e-10
4.30906e-10
1.84315e-09
6.35433e-07
1.19166e-06
5.19825e-07
1.03445e-07
9.73052e-08
3.79761e-07
2.66927e-06
2.92217e-05
8.40727e-05
0.0609494
0.258248
1.10834e-11
2.9604e-11
4.44429e-10
7.46442e-10
2.77505e-10
3.90332e-08
1.85936e-07
1.38213e-07
1.40199e-07
3.93124e-07
5.29292e-07
1.01559e-07
6.82485e-08
9.97198e-08
1.02977e-06
0.00092467
0.000247227
0.103948
0.245699
1.67188e-11
3.38432e-11
5.60863e-10
5.39076e-10
2.66383e-10
1.26205e-07
3.52128e-07
3.52128e-07
2.97951e-07
2.09219e-07
2.51838e-07
9.66262e-08
5.14238e-08
5.47122e-08
6.47876e-08
3.43064e-07
0.000441882
0.192136
0.245153
1.29108e-11
2.33307e-11
4.58535e-10
2.49718e-10
2.51732e-10
4.32142e-08
8.52738e-08
2.73178e-07
4.24083e-07
3.15322e-07
4.25141e-08
4.24092e-08
4.67923e-08
5.14057e-08
5.47121e-08
0.0175995
0.189997
0.242292
0.243634
3.03873e-12
1.38569e-11
1.20044e-10
4.00507e-11
2.37452e-09
2.06143e-08
1.37862e-08
1.39392e-08
3.77417e-08
5.65259e-08
2.72479e-08
3.04955e-08
0.00692064
0.0554245
0.182264
0.238095
0.240761
0.241402
0.241719
4.39526e-13
1.30165e-11
1.59014e-11
1.6032e-11
1.33206e-08
1.35586e-08
1.35624e-08
1.37563e-08
1.63217e-08
1.56882e-08
1.73415e-08
0.0274158
0.16914
0.207243
0.207243
0.171495
0.193863
0.240822
0.241087
1.4156e-13
7.36789e-12
2.08517e-11
1.85087e-11
5.89996e-09
6.37096e-09
2.11718e-08
1.43596e-08
1.50224e-08
1.48739e-08
1.74171e-08
0.030082
0.104331
0.102807
0.0911364
0.028486
0.00536992
0.159363
0.240756
3.97915e-14
1.66682e-12
2.11519e-11
8.63313e-11
9.13783e-12
9.16675e-12
3.5972e-07
4.60957e-08
1.42512e-08
0.00438273
0.0101931
0.0111528
0.00579519
0.00128005
0.000283461
0.00024123
0.000146238
0.011332
0.231718
9.49639e-15
3.22685e-13
2.0703e-11
7.93875e-11
4.16053e-11
1.11339e-11
4.0921e-07
1.0551e-07
7.27411e-09
0.0108901
0.0135788
0.0115767
0.00103789
0.000314703
8.90705e-05
5.63009e-05
0.000125617
0.00124904
0.220528
2.54085e-15
6.87405e-14
7.84772e-12
8.78851e-12
9.67691e-12
4.28879e-12
3.78029e-07
1.86693e-07
1.94731e-10
0.000988159
0.0134312
0.0135525
0.00426061
8.86123e-05
5.35948e-05
4.54791e-05
5.40385e-05
0.00772838
0.226996
5.05071e-16
1.14658e-14
1.08357e-12
9.62358e-13
9.44001e-12
4.25817e-12
4.28879e-12
6.84398e-11
1.01735e-10
1.967e-10
0.00697647
0.0113401
0.00197428
5.58337e-05
4.46259e-05
4.50525e-05
0.000105401
0.0506812
0.226567
7.44382e-17
1.64363e-15
1.82152e-14
6.68481e-14
7.60804e-12
1.90719e-12
1.89681e-09
4.43584e-10
4.62162e-11
0.00275393
0.0152117
0.00745388
8.80373e-05
4.46259e-05
4.46259e-05
8.53423e-05
0.00149264
0.113627
0.206683
7.39739e-18
1.54227e-16
1.39669e-15
1.57577e-14
1.69443e-12
1.90946e-12
3.78026e-09
2.18237e-09
9.50492e-21
0.0128071
0.0329505
0.0139113
0.000109144
4.55993e-05
4.46259e-05
0.000497229
0.0131866
0.0585886
0.03439
4.30559e-19
8.29827e-18
1.07596e-16
3.28578e-15
6.59048e-16
1.20499e-18
1.0752e-17
3.31034e-22
9.50692e-24
0.017556
0.0334111
0.0269711
0.00124452
8.9121e-05
4.53482e-05
0.00210292
0.016723
0.00370918
0.00173589
8.36683e-21
1.55421e-19
3.65494e-18
1.46539e-16
5.18261e-17
8.4945e-19
6.28016e-28
5.20064e-30
7.06105e-32
0.000760477
0.0336494
0.0349617
0.00553205
9.37653e-05
7.73644e-05
0.00209825
0.00441842
0.00114763
0.000324404
2.09182e-26
1.86167e-24
1.05271e-22
3.60106e-22
2.95588e-23
1.69036e-26
6.88173e-38
1.42497e-40
-1.78344e-47
0
0.0274331
0.0349617
0.0187457
2.40488e-05
8.19831e-05
0.000547542
0.000589449
0.000341369
0.000296464
)
;

boundaryField
{
    leftWall
    {
        type            zeroGradient;
    }
    rightWall
    {
        type            zeroGradient;
    }
    lowerWall
    {
        type            zeroGradient;
    }
    atmosphere
    {
        type            inletOutlet;
        inletValue      uniform 0;
        value           nonuniform List<scalar> 
46
(
0
0
0
0
0
0
0
0
0
0
0
0
0
0
0
0
0
0
0
0
0
0
0
0
0
0
0
0
0
0
0
0
0
0
0
0
0
0.0274331
0.0349617
0.0187457
0
8.19831e-05
0.000547542
0.000589449
0.000341369
0.000296464
)
;
    }
    defaultFaces
    {
        type            empty;
    }
}


// ************************************************************************* //
