/*--------------------------------*- C++ -*----------------------------------*\
  =========                 |
  \\      /  F ield         | OpenFOAM: The Open Source CFD Toolbox
   \\    /   O peration     | Website:  https://openfoam.org
    \\  /    A nd           | Version:  13
     \\/     M anipulation  |
\*---------------------------------------------------------------------------*/
FoamFile
{
    format      ascii;
    class       volScalarField;
    location    "0.4";
    object      p;
}
// * * * * * * * * * * * * * * * * * * * * * * * * * * * * * * * * * * * * * //

dimensions      [1 -1 -2 0 0 0 0];

internalField   nonuniform List<scalar> 
2268
(
884.789
886.675
894.923
903.477
907.332
905.908
901.742
897.911
896.208
897.309
901.445
908.796
919.65
934.343
953.09
976.008
1002.58
1030.39
1052.98
1064.72
1046.93
1032.58
1075.71
824.9
826.431
834.759
843.221
847.078
845.679
841.615
837.931
836.366
837.568
841.758
849.101
859.752
873.863
891.792
913.725
939.481
967.618
992.721
1006.95
993.604
961.518
1009.12
763.898
765.072
773.3
781.602
785.449
784.11
780.251
776.856
775.562
776.959
781.251
788.604
799.198
813.263
830.904
852.036
876.007
901.352
924.884
939.954
933.028
904.535
951.49
702.04
702.661
710.635
718.704
722.525
721.284
717.729
714.753
713.847
715.518
719.952
727.326
737.85
751.719
769.013
789.505
812.365
835.738
856.856
871.415
872.437
864.326
906.678
639.643
639.395
646.934
654.704
658.471
657.354
654.174
651.712
651.277
653.274
657.87
665.264
675.695
689.376
706.346
726.313
748.418
770.848
790.945
805.905
814.807
822.322
867.295
577.072
575.384
582.458
589.759
593.434
592.457
589.7
587.816
587.903
590.249
595.009
602.411
612.732
626.206
642.885
662.462
684.059
706.028
726.063
741.874
755.095
770.198
813.231
514.828
511.049
516.899
523.637
527.285
526.565
524.319
523.076
523.718
526.418
531.328
538.722
548.926
562.209
578.624
597.897
619.197
641.009
661.314
677.728
691.692
706.56
738.078
453.43
446.814
450.17
456.218
460.126
459.917
458.303
457.718
458.87
461.848
466.82
474.114
484.132
497.236
513.516
532.617
553.757
575.569
596.193
612.95
625.391
635.299
639.015
301.811
301.654
301.459
301.356
301.297
301.225
301.144
301.057
300.965
300.875
300.787
300.708
300.64
300.587
300.549
300.526
300.514
300.508
300.501
301.742
301.57
301.38
301.29
301.238
301.166
301.085
300.997
300.905
300.814
300.727
300.646
300.578
300.525
300.487
300.465
300.453
300.448
300.44
301.642
301.453
301.283
301.211
301.171
301.102
301.022
300.935
300.843
300.753
300.664
300.583
300.514
300.46
300.423
300.401
300.39
300.385
300.378
301.491
301.312
301.169
301.122
301.097
301.033
300.959
300.872
300.78
300.69
300.601
300.517
300.447
300.393
300.356
300.334
300.325
300.321
300.314
301.307
301.183
301.024
301.024
301.02
300.963
300.894
300.809
300.716
300.626
300.535
300.449
300.377
300.322
300.285
300.265
300.257
300.255
300.248
301.139
301.073
300.863
300.925
300.94
300.89
300.829
300.744
300.651
300.561
300.469
300.377
300.304
300.248
300.211
300.192
300.187
300.187
300.181
300.951
300.898
300.702
300.831
300.86
300.815
300.764
300.677
300.583
300.496
300.401
300.303
300.227
300.17
300.132
300.116
300.115
300.118
300.113
300.693
300.466
300.519
300.741
300.783
300.74
300.7
300.609
300.513
300.429
300.332
300.224
300.147
300.088
300.049
300.037
300.039
300.046
300.044
359.147
347.748
345.403
350.435
355.086
355.538
354.675
354.961
356.765
360.035
364.968
371.95
381.457
393.998
409.893
429.014
450.563
473.183
494.799
511.968
519.758
510.945
433.33
239.354
222.569
206.399
204.544
208.562
208.484
207.649
209.055
212.029
216.031
221.346
228.529
238.103
250.388
265.585
283.919
305.137
329.241
353.727
373.474
382.78
377.874
354.649
135.264
109.536
76.2933
66.8987
69.9456
69.524
68.1745
69.1789
71.3209
73.881
76.9287
81.1825
87.8021
98.3475
113.506
132.492
157.14
188.262
220.988
246.154
263.133
274.634
283.767
59.5991
27.7366
11.2836
10.8703
11.9444
11.4291
10.7954
10.8797
11.2673
11.7888
12.3745
13.2078
14.5645
16.7302
19.8111
24.2838
33.8592
54.735
88.0578
120.4
149.847
174.98
192.972
7.19939
6.18288
6.22764
6.33387
6.31364
6.33307
6.33436
6.32683
6.31952
6.31654
6.31931
6.32904
6.34827
6.37541
6.4412
6.51929
6.67294
8.14268
13.7212
24.3495
43.4044
71.1943
97.9711
6.17654
6.08752
6.12419
6.1655
6.17079
6.179
6.1824
6.18107
6.17948
6.18045
6.18591
6.1971
6.21593
6.24465
6.28255
6.34748
6.46177
6.57332
6.6776
6.87563
7.54108
13.7789
29.1826
6.02188
6.01059
6.00794
6.01696
6.02145
6.02595
6.02938
6.03097
6.03258
6.03587
6.0424
6.05241
6.0665
6.0851
6.09679
6.1156
6.17423
6.30997
6.39687
6.40142
6.18632
5.98284
6.06128
5.86004
5.85353
5.858
5.86503
5.86986
5.87404
5.87775
5.88093
5.88439
5.8893
5.89669
5.90656
5.9195
5.93464
5.94186
5.94456
5.95219
5.99593
5.99341
5.87124
5.70155
5.62579
5.62775
5.70665
5.70767
5.71154
5.71474
5.71867
5.72265
5.72673
5.73087
5.73544
5.74116
5.74874
5.7584
5.77012
5.78157
5.78619
5.77786
5.76599
5.7567
5.72549
5.62299
5.47938
5.39901
5.41305
5.55461
5.55698
5.56029
5.56333
5.56689
5.5709
5.57531
5.5801
5.58538
5.59153
5.599
5.60801
5.61815
5.62702
5.63162
5.62609
5.6179
5.60426
5.56872
5.48918
5.39887
5.34307
5.35052
5.40232
5.40469
5.40783
5.41082
5.41438
5.41855
5.42331
5.42863
5.43453
5.44117
5.44872
5.45721
5.46609
5.47384
5.47885
5.47821
5.47372
5.46398
5.43582
5.38224
5.3267
5.29316
5.31419
5.24947
5.25157
5.25438
5.25741
5.26108
5.26548
5.2706
5.2764
5.28288
5.29008
5.29799
5.30651
5.31518
5.32309
5.32941
5.33255
5.33265
5.32874
5.31431
5.2865
5.25447
5.23603
5.24585
5.09562
5.0974
5.09999
5.10309
5.10695
5.11162
5.1171
5.12338
5.13043
5.13823
5.14672
5.15576
5.16503
5.17398
5.18202
5.18845
5.19291
5.19473
5.19188
5.18449
5.17672
5.17731
5.19492
4.94063
4.94219
4.94467
4.94786
4.95192
4.95689
4.96277
4.96953
4.97716
4.98562
4.99485
5.00473
5.01503
5.02545
5.03563
5.0452
5.05394
5.06146
5.06739
5.07276
5.08056
5.09578
5.12371
4.78446
4.78589
4.78833
4.79164
4.79593
4.80123
4.80751
4.81478
4.82303
4.83222
4.8423
4.8532
4.86478
4.87689
4.88936
4.90204
4.91488
4.92789
4.94137
4.95639
4.97493
4.99993
5.0341
4.62706
4.62844
4.63091
4.63438
4.63891
4.64454
4.65125
4.65905
4.66793
4.67789
4.68889
4.70091
4.71389
4.72779
4.74254
4.75816
4.77473
4.79247
4.81185
4.83378
4.85959
4.89108
4.92992
4.46843
4.46981
4.47235
4.47599
4.48077
4.48673
4.49387
4.5022
4.51173
4.52247
4.53443
4.5476
4.562
4.57765
4.59459
4.61291
4.6328
4.65457
4.67867
4.70585
4.73707
4.77347
4.81603
4.30851
4.30996
4.31259
4.31639
4.32143
4.32771
4.33528
4.34413
4.3543
4.36581
4.3787
4.393
4.40877
4.42608
4.44504
4.46579
4.48857
4.51369
4.54159
4.57285
4.60817
4.64832
4.69393
4.14725
4.14888
4.15157
4.15553
4.1608
4.16741
4.17537
4.18472
4.19549
4.20774
4.22151
4.23688
4.25391
4.27274
4.29351
4.31639
4.34163
4.36954
4.40052
4.43501
4.47356
4.5167
4.5649
3.98479
3.98638
3.98921
3.99333
3.99882
4.00572
4.01404
4.02385
4.03518
4.0481
4.06268
4.079
4.09718
4.11736
4.13971
4.16441
4.19172
4.22194
4.25541
4.29251
4.33366
4.37927
4.42971
3.82096
3.82252
3.82547
3.82973
3.83542
3.84257
3.85122
3.86142
3.87324
3.88675
3.90204
3.9192
3.93837
3.95971
3.98339
4.00962
4.03865
4.07076
4.10626
4.14547
4.18875
4.23638
4.28881
3.65571
3.65725
3.66032
3.66467
3.67053
3.67789
3.6868
3.69734
3.70958
3.72358
3.73946
3.75733
3.77732
3.79961
3.82438
3.85185
3.88226
3.91588
3.95302
3.99396
4.039
4.08818
4.14242
3.48901
3.49056
3.49371
3.4981
3.50411
3.51163
3.52073
3.53153
3.54409
3.55849
3.57484
3.59325
3.61389
3.63691
3.66253
3.69096
3.72243
3.75723
3.79564
3.838
3.88469
3.93451
3.99061
3.32082
3.3224
3.32566
3.32992
3.33612
3.34375
3.35292
3.36393
3.37673
3.39141
3.40808
3.42689
3.44798
3.47153
3.49774
3.52684
3.55906
3.59467
3.63397
3.67723
3.72472
3.7765
3.83355
3.15111
3.15268
3.15588
3.16032
3.16645
3.17414
3.18346
3.19455
3.20746
3.22228
3.23914
3.25817
3.27952
3.30338
3.32994
3.35943
3.3921
3.42821
3.46805
3.5119
3.56008
3.61287
3.67081
2.97987
2.98143
2.9846
2.98909
2.99519
3.00287
3.01221
3.0233
3.03622
3.05107
3.06796
3.08704
3.10846
3.13241
3.15907
3.18869
3.2215
3.25779
3.29783
3.34194
3.39045
3.44371
3.50219
2.80713
2.80866
2.8118
2.81626
2.8223
2.82992
2.83919
2.85019
2.86301
2.87775
2.89453
2.91349
2.93478
2.95859
2.98512
3.01459
3.04725
3.08338
3.12327
3.16726
3.21569
3.26894
3.32752
2.6329
2.6344
2.63748
2.64187
2.6478
2.65529
2.6644
2.67522
2.68782
2.70232
2.71884
2.7375
2.75848
2.78193
2.80807
2.83712
2.86933
2.90498
2.94436
2.98782
3.03573
3.08849
3.14662
2.45721
2.45867
2.46167
2.46594
2.47172
2.47901
2.48788
2.49841
2.51069
2.52482
2.54092
2.55913
2.57958
2.60247
2.62797
2.65633
2.68778
2.7226
2.7611
2.80361
2.85053
2.90226
2.95936
2.28012
2.28151
2.28441
2.28852
2.2941
2.30112
2.30967
2.31982
2.33167
2.3453
2.36084
2.37841
2.39815
2.42025
2.44489
2.47228
2.50267
2.53632
2.57355
2.61468
2.66011
2.71026
2.76567
2.10168
2.10298
2.10575
2.10966
2.11498
2.12167
2.12983
2.13951
2.15081
2.16382
2.17865
2.19543
2.21428
2.23538
2.2589
2.28506
2.31409
2.34624
2.38182
2.42114
2.46458
2.51257
2.56561
1.92195
1.92314
1.92576
1.92941
1.93444
1.94073
1.94841
1.95754
1.96819
1.98047
1.99445
2.01027
2.02805
2.04795
2.07013
2.09481
2.12218
2.1525
2.18605
2.22313
2.2641
2.30935
2.35935
1.74099
1.74205
1.7445
1.74783
1.75252
1.75836
1.7655
1.77399
1.7839
1.79532
1.80833
1.82304
1.83958
1.85808
1.87871
1.90165
1.9271
1.95528
1.98644
2.02088
2.05891
2.10087
2.14718
1.55891
1.5598
1.56208
1.56504
1.56935
1.57468
1.58122
1.589
1.59807
1.60853
1.62044
1.63391
1.64904
1.66598
1.68485
1.70584
1.7291
1.75485
1.78331
1.81472
1.84937
1.88753
1.92954
1.37586
1.37657
1.37868
1.3812
1.38512
1.38989
1.39577
1.40276
1.41092
1.42031
1.43101
1.44311
1.45671
1.47191
1.48886
1.50768
1.52854
1.5516
1.57705
1.6051
1.63598
1.66989
1.70709
1.19187
1.19237
1.19433
1.19636
1.19986
1.20403
1.20919
1.21533
1.2225
1.23074
1.24014
1.25076
1.26269
1.27603
1.29088
1.30736
1.3256
1.34574
1.36792
1.39232
1.4191
1.4484
1.48036
1.00682
1.00704
1.00886
1.01038
1.01345
1.01698
1.02137
1.0266
1.0327
1.03973
1.04774
1.05678
1.06693
1.07827
1.09088
1.10485
1.12029
1.1373
1.15598
1.17647
1.19888
1.22325
1.24965
0.820816
0.820718
0.822407
0.823422
0.826035
0.828883
0.832466
0.836739
0.841732
0.847478
0.854017
0.861397
0.869674
0.878907
0.889157
0.900489
0.912973
0.926682
0.941692
0.958071
0.975868
0.99507
1.01565
0.634618
0.634249
0.635747
0.63634
0.638425
0.640596
0.643351
0.646645
0.650494
0.65492
0.659951
0.665622
0.671972
0.679038
0.68686
0.695478
0.704934
0.715267
0.72651
0.738685
0.75178
0.765721
0.780377
0.448827
0.448306
0.449501
0.449779
0.451264
0.452774
0.454699
0.457005
0.4597
0.462795
0.466308
0.470259
0.47467
0.47956
0.484948
0.490852
0.497284
0.504251
0.511749
0.519759
0.528221
0.537006
0.545902
0.26283
0.262209
0.262985
0.263026
0.26385
0.264701
0.265785
0.26709
0.268613
0.270359
0.272334
0.274544
0.276991
0.279678
0.282604
0.285764
0.28914
0.292707
0.296429
0.300246
0.304046
0.307658
0.310835
0.0743561
0.073359
0.0736919
0.0735003
0.0736383
0.0737784
0.073974
0.0742167
0.0744991
0.0748151
0.0751563
0.0755112
0.0758651
0.0762006
0.0764939
0.0767102
0.0768021
0.0767101
0.0763542
0.0756186
0.074342
0.0723073
0.0692209
283.883
300.986
306.5
302.277
322.009
312.419
303.852
303.46
283.552
282.781
289.056
305.827
201.793
209.259
221.578
241.202
117.089
130.077
143.817
158.97
42.3599
52.0434
63.5654
75.9641
6.67677
8.71142
13.2558
20.2269
5.64044
5.66736
5.74163
5.85747
5.48287
5.5343
5.58699
5.64407
5.40527
5.45132
5.50427
5.56134
5.36671
5.39756
5.44066
5.48819
5.27763
5.30857
5.3446
5.38479
5.22234
5.24352
5.26905
5.29871
5.15391
5.17588
5.20042
5.22755
5.06592
5.08828
5.11269
5.139
4.96388
4.98731
5.01242
5.03909
4.85188
4.87627
4.90211
4.92933
4.73149
4.75684
4.78347
4.81134
4.60407
4.63036
4.65783
4.68647
4.4704
4.49762
4.52597
4.55544
4.33094
4.35907
4.38833
4.41869
4.18593
4.21495
4.2451
4.2764
4.03541
4.06527
4.09628
4.12847
3.87934
3.90989
3.94167
3.9747
3.7174
3.74853
3.78096
3.81473
3.54931
3.58085
3.61375
3.64809
3.37482
3.40652
3.43965
3.47429
3.19366
3.22523
3.25827
3.29288
3.00564
3.03673
3.06931
3.10348
2.81063
2.84086
2.87255
2.90582
2.60866
2.63759
2.66795
2.6998
2.39988
2.4271
2.45565
2.48557
2.18463
2.20973
2.23603
2.26355
1.96338
1.98602
2.00968
2.03436
1.73687
1.75671
1.77738
1.79885
1.50574
1.52256
1.53998
1.55796
1.27041
1.28406
1.29807
1.31239
1.03158
1.04196
1.05246
1.06303
0.791394
0.798446
0.805446
0.812328
0.552206
0.556077
0.559743
0.563134
0.312556
0.313343
0.313767
0.313752
0.065863
0.0632433
0.0601001
0.0563442
300.507
299.145
300.362
300.587
300.672
300.611
300.602
300.503
300.404
300.334
300.227
300.093
300.014
299.952
299.912
299.905
299.914
299.93
299.934
292.007
300.561
301.017
300.88
300.666
300.378
300.46
300.326
300.214
300.175
300.066
299.892
299.82
299.751
299.695
299.709
299.729
299.764
299.785
310.916
301.469
301.778
300.564
300.386
300.231
300.321
300.145
300.079
300.202
300.021
299.608
299.557
299.486
299.4
299.481
299.502
299.568
299.639
264.803
288.67
291.392
292.042
297.014
299.961
300.204
299.887
299.622
299.75
299.679
299.189
299.238
299.147
298.905
299.108
299.17
299.302
299.543
184.528
214.834
230.819
211.181
194.716
259.418
287.726
286.285
272.919
278.828
297.34
298.581
298.418
298.595
298.434
298.582
298.718
298.913
299.505
99.4266
126.611
146.723
154.277
147.3
200.209
239.689
206.886
167.529
185.224
212.285
252.991
257.344
269.437
288.023
296.379
298.08
297.669
299.055
35.4921
52.9274
69.463
87.2082
97.359
113.324
130.824
124.461
113.766
125.275
139.459
173.525
193.789
180.475
206.768
260.937
294.351
292.159
298.181
6.11988
9.66383
17.4695
26.8082
35.7103
42.6041
48.3902
52.2902
53.4918
56.4727
64.8471
82.6241
105.3
128.658
178.788
236.954
263.169
276.864
304.262
5.71853
5.77445
5.96799
6.05546
6.20753
7.19404
8.66845
9.86409
10.5097
11.616
14.3201
20.4237
32.9025
65.0147
120.719
202.383
282.345
318.263
373.914
5.65374
5.75469
5.86088
5.98327
6.15125
6.33245
6.5025
6.60143
6.5698
6.52439
6.56399
6.70242
7.13981
10.7643
44.235
146.988
346.001
558.082
710.553
5.56851
5.65979
5.75606
5.87008
6.00686
6.14488
6.25748
6.33783
6.37948
6.3948
6.42236
6.48757
6.58865
7.01054
11.3839
51.5655
318.173
644.576
901.02
5.45673
5.5493
5.6482
5.75992
5.88074
5.99879
6.10354
6.19092
6.25833
6.29853
6.33862
6.41471
6.55714
6.79409
7.94479
15.2647
204.323
545.919
772.985
5.3553
5.44056
5.53349
5.63949
5.75574
5.87058
5.97365
6.06398
6.14238
6.2001
6.26034
6.35303
6.50903
6.72645
7.09643
8.96481
86.2099
379.72
548.612
5.27757
5.35471
5.44224
5.54066
5.64536
5.74974
5.84788
5.93732
6.02095
6.10165
6.18231
6.28338
6.42797
6.6069
6.83537
7.27066
29.9704
229.541
326.743
5.18627
5.26486
5.35005
5.44183
5.5375
5.63413
5.7299
5.81778
5.90857
5.99894
6.0954
6.20536
6.33478
6.43637
6.65205
6.14409
4.91413
112.667
151.36
5.0867
5.16289
5.24578
5.33363
5.42464
5.51744
5.61061
5.70202
5.79449
5.88923
5.9893
6.09482
6.24033
6.2669
6.46868
6.47466
6.78086
38.3013
52.8872
4.97747
5.05287
5.13405
5.21968
5.30849
5.3996
5.49197
5.58453
5.67769
5.77218
5.86916
5.96827
6.08189
6.10034
6.30759
6.02576
7.74551
12.1114
26.5118
4.86028
4.93578
5.01675
5.10176
5.18987
5.28055
5.37295
5.46579
5.55817
5.64998
5.74109
5.83006
5.91863
5.958
6.10859
5.71395
19.6414
17.0547
26.222
4.73649
4.81292
4.89448
4.98004
5.06871
5.16007
5.25319
5.34629
5.43741
5.52597
5.61167
5.6943
5.76995
5.82378
5.91917
5.84144
29.7017
28.1534
29.6392
4.60674
4.68466
4.76763
4.85475
4.94507
5.03823
5.13302
5.2271
5.31755
5.40349
5.4851
5.56318
5.63763
5.70929
5.75191
5.77057
35.4212
34.4044
29.8065
4.47145
4.55134
4.63646
4.72593
4.81918
4.91543
5.01327
5.10976
5.20116
5.28608
5.36496
5.43453
5.51691
5.57508
5.69355
5.24485
27.2421
30.5093
27.4642
4.33072
4.41298
4.50091
4.59389
4.69111
4.79198
4.8949
4.99634
5.09152
5.17801
5.25696
5.31161
5.41191
5.45165
5.69845
5.73212
18.3328
21.4428
23.8475
4.1844
4.26935
4.3606
4.4578
4.56035
4.66777
4.77849
4.88895
4.99271
5.08382
5.16626
5.21189
5.29911
5.37268
5.63514
5.7515
5.80458
9.04574
18.0982
4.03219
4.11996
4.21491
4.31701
4.42606
4.54205
4.66394
4.78888
4.90803
5.02147
5.09793
5.13855
5.20165
5.28386
5.53594
5.74889
4.68636
3.76933
17.8096
3.87365
3.96416
4.0629
4.17023
4.28659
4.41291
4.54956
4.69533
4.84228
4.98304
5.07533
5.11956
5.16559
5.27126
5.55538
5.77409
5.84622
7.07888
38.9179
3.70814
3.80101
3.9033
4.0158
4.13969
4.27737
4.43112
4.60206
4.78858
4.96885
5.09212
5.15809
5.19507
5.27682
5.44603
5.56804
6.03159
7.03565
41.3502
3.535
3.62948
3.7345
3.85134
3.98224
4.1314
4.30266
4.49856
4.71809
4.93303
5.09394
5.18178
5.19868
5.2069
5.25362
5.21627
5.73915
7.71622
62.9253
3.35362
3.44864
3.55501
3.67422
3.8096
3.96767
4.15363
4.37097
4.61612
4.85712
5.04283
5.12993
5.14145
5.13195
5.18833
5.50673
6.52542
9.87442
128.25
3.16351
3.25779
3.36379
3.48302
3.61942
3.78062
3.97201
4.1948
4.45387
4.71366
4.92278
5.0508
5.10298
5.15427
5.38916
6.16033
7.74578
28.6878
185.565
2.96431
3.05637
3.1601
3.27695
3.41081
3.57066
3.76221
3.98312
4.24119
4.5288
4.78688
5.047
5.13338
5.10944
5.15823
5.25229
9.15269
126.928
246.097
2.75583
2.84402
2.94334
3.0552
3.18313
3.3384
3.53459
3.77984
4.06696
4.37081
4.60463
4.76863
4.57784
1.86861
-5.97739
4.04113
56.4244
153.33
258.231
2.53821
2.62075
2.71326
2.81696
2.9346
3.07782
3.26712
3.52041
3.84127
4.14392
4.28017
3.86375
-3.24376
-4.95553
0.208889
9.24545
31.486
97.1571
212.033
2.31188
2.3871
2.47053
2.56257
2.6643
2.78475
2.94027
3.16322
3.50732
3.99845
4.26386
4.40863
4.20147
2.75624
3.62661
1.24199
6.72016
32.4583
118.215
2.07756
2.14405
2.21669
2.29447
2.37689
2.46498
2.5649
2.69435
2.8917
3.17449
2.8507
0.141196
-2.2354
-2.62224
-1.8754
-0.891689
0.734302
5.45955
33.1617
1.83624
1.89292
1.95338
2.01538
2.07656
2.1314
2.17844
2.21277
2.23291
2.11912
-0.864227
-2.64314
-2.91549
-2.96905
-2.76162
-2.4167
-1.82291
-1.29446
19.0331
1.58906
1.63526
1.68282
1.72852
1.76753
1.79258
1.79243
1.74619
1.66929
1.39268
-0.032728
-2.73078
-3.37132
-3.57073
-3.87581
-4.29761
-4.07936
-6.88453
15.7914
1.33688
1.37231
1.40696
1.43675
1.45615
1.45717
1.41818
1.30923
1.14621
0.679929
-0.403569
-2.93031
-3.72014
-4.15976
-5.20735
-6.60974
-7.28743
-7.36599
36.5963
1.08083
1.10547
1.1275
1.1426
1.14557
1.12795
1.0596
0.92751
0.713353
-0.0687996
-3.11647
-3.75807
-3.84217
-4.45834
-6.22061
-8.35238
-10.4318
-8.88626
23.8399
0.823631
0.837818
0.847841
0.849759
0.838375
0.807906
0.725951
0.632913
0.323754
-0.753774
-4.39663
-3.98706
-3.74734
-4.27837
-6.27238
-9.10509
-9.95594
-3.62703
17.1691
0.568272
0.572676
0.571619
0.561333
0.536309
0.490832
0.397221
0.342219
0.15497
0.81947
-3.22452
-4.27036
-3.10092
-3.22983
-4.65798
-6.45379
-5.18794
2.27117
10.2938
0.312816
0.307687
0.295962
0.273672
0.234545
0.168755
0.0515868
-0.0803042
-0.401637
-0.904115
-4.80599
-4.41155
-1.6146
-1.62703
-1.85244
-0.77435
-0.7494
2.49836
5.47838
0.0488073
0.0332345
0.0098781
-0.0252986
-0.0787983
-0.162021
-0.298323
-0.507328
-1.03022
-2.11477
-4.26631
-2.59821
-0.04293
-0.29725
0.257313
1.35842
0.281785
-0.00523198
1.08399
)
;

boundaryField
{
    leftWall
    {
        type            calculated;
        value           nonuniform List<scalar> 
50
(
884.789
824.9
763.898
702.04
639.643
577.072
514.828
453.43
359.147
239.354
135.264
59.5991
7.19939
6.17654
6.02188
5.86004
5.70665
5.55461
5.40232
5.24947
5.09562
4.94063
4.78446
4.62706
4.46843
4.30851
4.14725
3.98479
3.82096
3.65571
3.48901
3.32082
3.15111
2.97987
2.80713
2.6329
2.45721
2.28012
2.10168
1.92195
1.74099
1.55891
1.37586
1.19187
1.00682
0.820816
0.634618
0.448827
0.26283
0.0743561
)
;
    }
    rightWall
    {
        type            calculated;
        value           nonuniform List<scalar> 
50
(
300.501
300.44
300.378
300.314
300.248
300.181
300.113
300.044
299.934
299.785
299.639
299.543
299.505
299.055
298.181
304.262
373.914
710.553
901.02
772.985
548.612
326.743
151.36
52.8872
26.5118
26.222
29.6392
29.8065
27.4642
23.8475
18.0982
17.8096
38.9179
41.3502
62.9253
128.25
185.565
246.097
258.231
212.033
118.215
33.1617
19.0331
15.7914
36.5963
23.8399
17.1691
10.2938
5.47838
1.08399
)
;
    }
    lowerWall
    {
        type            calculated;
        value           nonuniform List<scalar> 
62
(
914.218
916.104
924.352
932.907
936.762
935.337
931.171
927.341
925.637
926.738
930.874
938.225
949.08
963.772
982.519
1005.44
1032.01
1059.82
1082.41
1092.74
1071.85
1057.91
1104.51
1075.71
1009.12
951.49
906.678
867.295
813.231
738.078
639.015
346.453
363.583
355.602
318.532
301.811
301.742
301.642
301.491
301.307
301.139
300.951
300.693
301.841
301.684
301.489
301.386
301.327
301.255
301.174
301.086
300.994
300.904
300.817
300.737
300.669
300.616
300.578
300.555
300.544
300.538
300.53
)
;
    }
    atmosphere
    {
        type            calculated;
        value           nonuniform List<scalar> 
46
(
-0.0221605
-0.0238811
-0.0236245
-0.0239645
-0.024173
-0.0244327
-0.0247303
-0.0250759
-0.0254811
-0.0259599
-0.0265292
-0.0272097
-0.028027
-0.0290129
-0.0302074
-0.0316609
-0.033438
-0.0356236
-0.0383296
-0.0417026
-0.0459352
-0.0512821
-0.0580805
-0.0644704
-0.0691531
-0.0744544
-0.0804828
-0.0920541
-0.113951
-0.144368
-0.187177
-0.24832
-0.337624
-0.472842
-0.643095
-1.06905
-1.48123
0
0
0
-0.156591
0
0
0
0
0
)
;
    }
    defaultFaces
    {
        type            empty;
    }
}


// ************************************************************************* //
