/*--------------------------------*- C++ -*----------------------------------*\
  =========                 |
  \\      /  F ield         | OpenFOAM: The Open Source CFD Toolbox
   \\    /   O peration     | Website:  https://openfoam.org
    \\  /    A nd           | Version:  13
     \\/     M anipulation  |
\*---------------------------------------------------------------------------*/
FoamFile
{
    format      ascii;
    class       volScalarField;
    location    "0.4";
    object      p_rgh;
}
// * * * * * * * * * * * * * * * * * * * * * * * * * * * * * * * * * * * * * //

dimensions      [1 -1 -2 0 0 0 0];

internalField   nonuniform List<scalar> 
2268
(
914.218
916.104
924.352
932.907
936.762
935.337
931.171
927.341
925.637
926.738
930.874
938.225
949.08
963.772
982.519
1005.44
1032.01
1059.82
1082.41
1092.74
1071.85
1057.91
1104.51
913.188
914.719
923.047
931.509
935.366
933.967
929.903
926.219
924.654
925.856
930.046
937.389
948.04
962.151
980.081
1002.01
1027.77
1055.91
1081.01
1094.97
1069.98
1043.57
1097.26
911.045
912.219
920.447
928.749
932.596
931.257
927.398
924.003
922.709
924.106
928.398
935.751
946.345
960.41
978.051
999.183
1023.15
1048.5
1072.03
1087.1
1077.9
1050.78
1098.4
908.046
908.667
916.641
924.71
928.531
927.29
923.735
920.759
919.853
921.524
925.958
933.332
943.855
957.724
975.019
995.511
1018.37
1041.74
1062.86
1077.42
1078.44
1070.32
1112.36
904.508
904.26
911.799
919.569
923.336
922.218
919.039
916.576
916.141
918.138
922.734
930.128
940.559
954.241
971.21
991.177
1013.28
1035.71
1055.81
1070.77
1079.67
1087.19
1131.75
900.795
899.107
906.181
913.482
917.157
916.18
913.423
911.539
911.626
913.972
918.732
926.134
936.455
949.929
966.608
986.185
1007.78
1029.75
1049.79
1065.6
1078.82
1093.92
1136.53
897.41
893.631
899.481
906.218
909.867
909.147
906.901
905.658
906.3
909
913.91
921.304
931.508
944.791
961.206
980.479
1001.78
1023.59
1043.9
1060.31
1074.27
1089.14
1120.19
894.87
888.254
891.61
897.658
901.566
901.357
899.744
899.159
900.31
903.288
908.26
915.554
925.572
938.677
954.957
974.057
995.198
1017.01
1037.63
1054.39
1066.83
1076.74
1079.92
301.841
301.684
301.489
301.386
301.327
301.255
301.174
301.086
300.994
300.904
300.817
300.737
300.669
300.616
300.578
300.555
300.544
300.538
300.53
301.831
301.658
301.468
301.378
301.326
301.254
301.173
301.085
300.993
300.902
300.815
300.734
300.666
300.613
300.576
300.553
300.542
300.536
300.528
301.892
301.614
301.43
301.358
301.318
301.249
301.169
301.082
300.99
300.9
300.812
300.73
300.661
300.608
300.57
300.548
300.537
300.532
300.525
301.913
301.655
301.379
301.328
301.303
301.239
301.165
301.078
300.986
300.896
300.807
300.723
300.653
300.599
300.562
300.54
300.531
300.527
300.52
301.85
301.723
301.34
301.289
301.285
301.227
301.159
301.073
300.981
300.891
300.8
300.714
300.642
300.587
300.55
300.53
300.522
300.52
300.513
301.62
301.513
301.256
301.249
301.264
301.213
301.153
301.067
300.974
300.885
300.792
300.701
300.628
300.572
300.534
300.516
300.511
300.511
300.505
301.465
301.336
301.124
301.215
301.243
301.197
301.147
301.06
300.966
300.878
300.784
300.685
300.61
300.552
300.515
300.499
300.497
300.5
300.496
301.631
301.667
301
301.184
301.225
301.181
301.142
301.051
300.954
300.871
300.773
300.666
300.588
300.529
300.491
300.478
300.48
300.488
300.485
892.614
881.215
878.864
883.89
888.543
888.998
888.138
888.426
890.231
893.501
898.434
905.415
914.923
927.463
943.36
962.481
984.03
1006.65
1028.27
1045.43
1053.22
1044.41
966.222
898.015
881.222
864.914
862.98
867.03
867.002
866.211
867.644
870.626
874.634
879.94
887.1
896.642
908.907
924.137
942.58
963.799
987.903
1012.39
1032.13
1041.44
1036.54
1013.28
919.115
863.597
698.247
654.739
677.831
680.645
677.853
684.747
697.17
710.824
725.441
744.184
770.637
807.211
852.11
905.407
940.996
972.118
1004.84
1030.01
1046.99
1058.49
1067.62
738.395
334.078
81.0134
75.2217
92.4969
83.8169
73.9631
75.7333
82.1123
90.3921
99.5713
112.62
133.658
167.138
215.1
283.517
420.333
653.328
937.601
1029.45
1058.9
1084.03
1102.02
16.6823
7.21712
7.26189
7.36812
7.34789
7.36732
7.36861
7.36108
7.35376
7.35079
7.35355
7.36329
7.38252
7.40966
7.47545
7.5537
10.5955
37.125
129.32
312.907
631.857
1031.06
1132.21
7.33598
7.24696
7.28363
7.32494
7.33023
7.33844
7.34184
7.34051
7.33892
7.33989
7.34537
7.35673
7.3754
7.4041
7.44314
7.52043
7.63531
7.75588
7.90068
8.98846
28.1876
166.476
464.447
7.30652
7.29522
7.29257
7.3016
7.30609
7.31058
7.31402
7.3156
7.31722
7.32052
7.32752
7.3378
7.35163
7.36975
7.38147
7.55064
8.00338
8.15962
8.66089
9.33251
8.71197
7.83207
7.82964
7.26987
7.26336
7.26783
7.27486
7.27969
7.28387
7.28758
7.29076
7.29422
7.29921
7.30735
7.31722
7.32998
7.34451
7.35173
7.51925
7.98233
8.62563
8.97768
8.95625
8.49038
7.26675
7.21595
7.24167
7.2427
7.24656
7.24977
7.25369
7.25768
7.26176
7.2659
7.27047
7.2762
7.28419
7.29412
7.30516
7.31689
7.32205
7.37317
7.30102
7.29172
7.30407
7.55077
7.19274
7.11096
7.12363
7.21483
7.2172
7.22051
7.22355
7.22711
7.23112
7.23553
7.24031
7.24559
7.25175
7.25922
7.26823
7.27837
7.28814
7.29808
7.28631
7.27812
7.26448
7.22894
7.27513
7.257
7.22056
7.20057
7.18773
7.1901
7.19324
7.19624
7.19979
7.20396
7.20873
7.21404
7.21994
7.22658
7.23414
7.24262
7.25152
7.25988
7.26457
7.26363
7.25913
7.2494
7.22124
7.17403
7.50671
7.72784
8.09703
7.16008
7.16218
7.16499
7.16801
7.17169
7.17609
7.1812
7.18701
7.19349
7.20068
7.2086
7.21713
7.22579
7.23374
7.24001
7.24316
7.24326
7.23935
7.22492
7.19711
7.16507
7.14839
7.45111
7.13142
7.1332
7.1358
7.13889
7.14275
7.14742
7.1529
7.15918
7.16623
7.17403
7.18252
7.19157
7.20084
7.20978
7.21782
7.22425
7.22871
7.23053
7.22768
7.22029
7.21252
7.21311
7.23072
7.10163
7.10318
7.10566
7.10885
7.11291
7.11789
7.12376
7.13052
7.13815
7.14662
7.15585
7.16573
7.17603
7.18645
7.19663
7.2062
7.21493
7.22246
7.22838
7.23375
7.24156
7.25678
7.2847
7.07065
7.07208
7.07452
7.07784
7.08212
7.08742
7.0937
7.10098
7.10922
7.11841
7.12849
7.13939
7.15097
7.16308
7.17556
7.18823
7.20107
7.21408
7.22756
7.24258
7.26112
7.28612
7.32029
7.03845
7.03983
7.04229
7.04577
7.0503
7.05592
7.06263
7.07043
7.07932
7.08927
7.10028
7.1123
7.12528
7.13917
7.15393
7.16954
7.18611
7.20386
7.22323
7.24516
7.27097
7.30247
7.3413
7.00501
7.00639
7.00893
7.01257
7.01735
7.02331
7.03045
7.03878
7.04831
7.05905
7.07101
7.08418
7.09858
7.11423
7.13117
7.14949
7.16938
7.19115
7.21525
7.24243
7.27365
7.31005
7.35261
6.97029
6.97173
6.97436
6.97817
6.9832
6.98949
6.99705
7.0059
7.01607
7.02759
7.04048
7.05478
7.07055
7.08786
7.10681
7.12756
7.15034
7.17546
7.20336
7.23463
7.26995
7.31009
7.3557
6.93422
6.93585
6.93854
6.9425
6.94777
6.95437
6.96233
6.97168
6.98246
6.99471
7.00848
7.02384
7.04088
7.05971
7.08048
7.10336
7.1286
7.15651
7.18748
7.22198
7.26053
7.30367
7.35187
6.89695
6.89854
6.90137
6.90549
6.91099
6.91788
6.92621
6.93601
6.94734
6.96026
6.97484
6.99116
7.00934
7.02952
7.05187
7.07658
7.10388
7.13411
7.16758
7.20468
7.24582
7.29143
7.34187
6.85832
6.85988
6.86282
6.86709
6.87278
6.87992
6.88857
6.89878
6.9106
6.92411
6.9394
6.95656
6.97573
6.99706
7.02074
7.04698
7.07601
7.10811
7.14361
7.18283
7.2261
7.27374
7.32617
6.81826
6.8198
6.82288
6.82723
6.83308
6.84044
6.84936
6.85989
6.87213
6.88614
6.90201
6.91988
6.93987
6.96216
6.98693
7.0144
7.04481
7.07843
7.11557
7.15651
7.20155
7.25073
7.30497
6.77675
6.77831
6.78146
6.78585
6.79185
6.79937
6.80848
6.81928
6.83184
6.84624
6.86259
6.881
6.90163
6.92466
6.95028
6.9787
7.01018
7.04498
7.08339
7.12574
7.17243
7.22225
7.27835
6.73376
6.73534
6.7386
6.74286
6.74906
6.75669
6.76586
6.77687
6.78967
6.80435
6.82102
6.83983
6.86092
6.88447
6.91068
6.93978
6.972
7.00761
7.04691
7.09017
7.13766
7.18944
7.24649
6.68924
6.69081
6.69401
6.69846
6.70459
6.71228
6.7216
6.73268
6.74559
6.76042
6.77727
6.7963
6.81766
6.84151
6.86808
6.89757
6.93023
6.96634
7.00618
7.05004
7.09822
7.151
7.20894
6.6432
6.64476
6.64793
6.65242
6.65852
6.6662
6.67554
6.68663
6.69955
6.7144
6.73129
6.75037
6.77179
6.79574
6.8224
6.85202
6.88483
6.92112
6.96116
7.00527
7.05378
7.10704
7.16552
6.59565
6.59719
6.60033
6.60478
6.61082
6.61844
6.62771
6.63871
6.65153
6.66627
6.68305
6.70201
6.72331
6.74711
6.77364
6.80311
6.83577
6.8719
6.9118
6.95578
7.00421
7.05747
7.11605
6.54662
6.54812
6.5512
6.55559
6.56152
6.56901
6.57812
6.58894
6.60154
6.61604
6.63256
6.65122
6.6722
6.69565
6.72179
6.75084
6.78305
6.8187
6.85808
6.90154
6.94945
7.00221
7.06034
6.49612
6.49758
6.50058
6.50485
6.51064
6.51792
6.5268
6.53733
6.54961
6.56374
6.57984
6.59804
6.6185
6.64138
6.66689
6.69524
6.7267
6.76152
6.80002
6.84253
6.88944
6.94118
6.99827
6.44422
6.44562
6.44852
6.45263
6.45821
6.46523
6.47378
6.48393
6.49577
6.50941
6.52494
6.54251
6.56226
6.58436
6.60899
6.63638
6.66677
6.70043
6.73766
6.77879
6.82422
6.87437
6.92978
6.39098
6.39229
6.39506
6.39896
6.40429
6.41098
6.41913
6.42881
6.44011
6.45312
6.46795
6.48473
6.50358
6.52468
6.5482
6.57436
6.60339
6.63555
6.67112
6.71044
6.75389
6.80187
6.85491
6.33644
6.33764
6.34026
6.34391
6.34893
6.35523
6.36291
6.37204
6.38269
6.39496
6.40895
6.42477
6.44255
6.46245
6.48463
6.5093
6.53668
6.567
6.60055
6.63763
6.6786
6.72385
6.77385
6.28068
6.28174
6.28419
6.28752
6.29221
6.29805
6.30519
6.31368
6.32359
6.33501
6.34802
6.36273
6.37927
6.39777
6.4184
6.44134
6.46679
6.49497
6.52614
6.56057
6.59861
6.64056
6.68687
6.2238
6.22469
6.22697
6.22992
6.23424
6.23957
6.24611
6.25388
6.26296
6.27341
6.28533
6.29879
6.31393
6.33086
6.34974
6.37072
6.39399
6.41974
6.4482
6.47961
6.51426
6.55242
6.59443
6.16594
6.16665
6.16876
6.17128
6.1752
6.17997
6.18585
6.19284
6.201
6.21039
6.22109
6.23319
6.24679
6.262
6.27894
6.29776
6.31862
6.34168
6.36713
6.39518
6.42606
6.45997
6.49717
6.10715
6.10764
6.1096
6.11163
6.11514
6.11931
6.12447
6.13061
6.13777
6.14602
6.15542
6.16604
6.17797
6.19131
6.20616
6.22264
6.24088
6.26101
6.2832
6.3076
6.33438
6.36367
6.39564
6.04729
6.04751
6.04933
6.05085
6.05393
6.05745
6.06184
6.06707
6.07317
6.0802
6.08821
6.09725
6.1074
6.11874
6.13135
6.14532
6.16076
6.17777
6.19645
6.21694
6.23935
6.26372
6.29012
5.98648
5.98638
5.98807
5.98909
5.9917
5.99455
5.99813
6.0024
6.0074
6.01314
6.01968
6.02706
6.03534
6.04457
6.05482
6.06615
6.07864
6.09235
6.10736
6.12374
6.14153
6.16073
6.18131
5.92548
5.92511
5.92661
5.9272
5.92928
5.93145
5.93421
5.9375
5.94135
5.94578
5.95081
5.95648
5.96283
5.9699
5.97772
5.98634
5.99579
6.00613
6.01737
6.02954
6.04264
6.05658
6.07124
5.86488
5.86436
5.86555
5.86583
5.86732
5.86883
5.87075
5.87306
5.87575
5.87885
5.88236
5.88631
5.89072
5.89561
5.901
5.90691
5.91334
5.9203
5.9278
5.93581
5.94427
5.95306
5.96196
5.80408
5.80346
5.80423
5.80427
5.8051
5.80595
5.80703
5.80834
5.80986
5.81161
5.81358
5.81579
5.81824
5.82093
5.82385
5.82701
5.83039
5.83396
5.83768
5.84149
5.84529
5.84891
5.85208
5.7408
5.7398
5.74013
5.73994
5.74008
5.74022
5.74042
5.74066
5.74094
5.74126
5.7416
5.74195
5.74231
5.74264
5.74294
5.74315
5.74324
5.74315
5.7428
5.74206
5.74078
5.73875
5.73566
817.116
834.446
724.953
440.802
980.599
971.079
962.505
919.635
1067.41
1066.63
1072.91
1089.65
1110.84
1118.31
1130.63
1150.23
1151.33
1164.32
1178.06
1193.2
747.628
942.716
1149.67
1235.38
30.5319
80.3158
176.344
322.089
7.30611
7.43791
8.31706
7.89593
7.19427
7.24984
7.31967
7.39878
7.25554
7.30174
7.35735
7.42318
8.14956
8.1781
8.18762
8.21075
7.75144
7.80858
7.91157
8.08093
7.25814
7.27932
7.33203
7.40086
7.3149
7.33688
7.36142
7.38854
7.35211
7.37447
7.39888
7.42519
7.37527
7.3987
7.4238
7.45047
7.38846
7.41285
7.43869
7.46591
7.39327
7.41861
7.44524
7.47312
7.39104
7.41733
7.4448
7.47344
7.38256
7.40978
7.43813
7.4676
7.3683
7.39643
7.42568
7.45605
7.34848
7.3775
7.40766
7.43895
7.32316
7.35301
7.38403
7.41622
7.29228
7.32283
7.35461
7.38764
7.25553
7.28666
7.31909
7.35287
7.21265
7.24418
7.27708
7.31142
7.16334
7.19504
7.22817
7.26282
7.10738
7.13895
7.17199
7.2066
7.04455
7.07564
7.10822
7.14239
6.97474
7.00496
7.03666
7.06993
6.89796
6.9269
6.95725
6.9891
6.81438
6.8416
6.87014
6.90007
6.72432
6.74942
6.77573
6.80325
6.62827
6.65091
6.67457
6.69924
6.52695
6.54679
6.56746
6.58893
6.42102
6.43784
6.45526
6.47324
6.31088
6.32453
6.33854
6.35286
6.19725
6.20762
6.21813
6.2287
6.08225
6.08931
6.09631
6.10319
5.96826
5.97213
5.9758
5.97919
5.8538
5.85459
5.85502
5.855
5.73231
5.72969
5.72654
5.72279
304.011
302.151
300.895
301.12
301.205
301.145
301.136
301.036
300.937
300.867
300.76
300.626
300.548
300.485
300.445
300.438
300.448
300.464
300.468
439.401
301.22
301.676
301.539
301.325
301.039
301.123
300.996
300.872
300.833
300.724
300.55
300.479
300.41
300.353
300.368
300.388
300.423
300.444
958.55
506.926
302.563
301.348
301.218
301.015
301.107
300.931
300.863
300.986
300.809
300.392
300.342
300.271
300.185
300.265
300.286
300.352
300.423
1173.79
1174.77
476.805
314.629
431.275
300.871
301.113
300.797
300.532
300.712
300.591
300.098
300.149
300.099
299.841
300.023
300.08
300.212
300.454
1218.75
1248.87
1165.06
904.338
1049.79
954.978
507.026
495.131
702.38
615.153
374.69
299.617
299.457
302.775
299.875
299.772
299.773
299.972
300.583
1258.63
1285.42
1305.24
1308.58
1289.26
1337.29
1317.42
1266.2
1281.44
1293.47
1241.84
1096.17
1027.91
828.275
415.281
338.87
299.479
299.052
300.761
667.179
1059.81
1265.84
1354.83
1357.22
1373.39
1390.68
1382.18
1368.96
1379.88
1393.91
1426
1439.62
1415.75
1441.69
1125.29
378.428
296.129
303.749
14.9356
108.521
278.282
493.814
716.62
877.939
980.72
1041.9
1088.38
1148.82
1250.67
1447.24
1463.98
1485
1534.74
1592.27
1184.19
378.761
367.706
7.51754
7.70903
8.45489
8.81569
13.4435
31.8124
57.3195
80.8979
101.986
134.605
201.81
349.12
632.525
1286.84
1596.39
1673.89
1749.06
1191.08
962.979
7.53143
7.6737
7.89733
8.35005
8.76065
9.15922
10.2395
10.3055
8.59723
8.34929
8.52949
9.99231
9.72002
97.7021
796.673
1721.13
1921.25
2046.3
1699.63
8.31166
8.46538
8.57573
8.69165
8.80924
8.7433
8.53799
8.34451
8.1795
8.18298
8.21555
8.29391
8.46239
9.26957
15.4638
1138.96
2001.28
2316.71
1968.9
8.32738
8.48617
8.61799
8.35697
7.96226
7.91737
8.01596
8.10198
8.169
8.20922
8.24937
8.32577
8.46988
8.72278
10.0735
508.125
1898.15
2323.62
1836.2
7.51117
7.62753
7.69547
7.68858
7.79179
7.90643
8.00948
8.09979
8.17824
8.23596
8.2962
8.3889
8.54506
8.76444
9.1674
206.28
1669.56
2267.6
1586.88
7.43867
7.51575
7.60326
7.70166
7.80637
7.91074
8.00888
8.09832
8.1824
8.26301
8.34337
8.44445
8.58904
8.76822
9.01974
90.2712
1453.45
2221.74
1320.38
7.47246
7.55105
7.63624
7.72802
7.82369
7.92032
8.01609
8.10398
8.19476
8.28592
8.38984
8.4939
8.62118
8.725
9.08004
8.49603
1352.02
2090.02
1010.87
7.49809
7.57428
7.65716
7.74501
7.83603
7.92882
8.022
8.11341
8.20588
8.30137
8.42184
8.52754
8.65201
8.67921
8.88767
8.89792
1460.71
1621.82
580.473
7.51405
7.58945
7.67063
7.75626
7.84507
7.93618
8.02856
8.12111
8.21427
8.30876
8.41936
8.52763
8.63703
8.63949
8.84681
37.9059
1631.96
1091.01
189.14
7.52206
7.59756
7.67853
7.76353
7.85165
7.94234
8.03474
8.12757
8.21995
8.31176
8.40286
8.51583
8.60459
8.62265
8.77548
166.105
1724.16
609.343
190.971
7.52345
7.59989
7.68145
7.76701
7.85568
7.94704
8.04017
8.13327
8.22438
8.31294
8.39864
8.5002
8.58223
8.61405
8.8074
250.894
1809.41
371.646
201.56
7.5189
7.59682
7.67979
7.76692
7.85723
7.95039
8.04552
8.1411
8.23142
8.31591
8.39727
8.48429
8.57626
8.62744
8.69215
200.543
1879.92
515.032
209.387
7.5088
7.5887
7.67382
7.76328
7.85654
7.95278
8.05153
8.1524
8.24379
8.32483
8.40232
8.47469
8.58185
8.6318
9.03774
54.1868
1582.56
1074.83
214.759
7.49327
7.57554
7.66346
7.75644
7.85366
7.95453
8.05746
8.1613
8.25957
8.3458
8.4211
8.47872
8.60308
8.64056
8.9528
30.7957
669.174
1164.3
218.863
7.47215
7.55709
7.64835
7.74555
7.8481
7.95554
8.06626
8.17673
8.28558
8.37781
8.46026
8.50642
8.59553
8.67389
9.18204
18.2369
19.7428
1201.53
220.833
7.44514
7.53291
7.62786
7.72995
7.839
7.95513
8.07852
8.20349
8.32464
8.44089
8.51736
8.55417
8.61566
8.69963
9.07317
10.1159
16.8744
1239.57
928.486
7.41178
7.50229
7.60104
7.70837
7.82472
7.95105
8.0926
8.23922
8.38616
8.52536
8.61754
8.65946
8.70462
8.81053
9.11526
9.38328
22.3418
652.899
1041.36
7.37147
7.46434
7.56663
7.67913
7.80302
7.9407
8.09501
8.27059
8.45786
8.63659
8.75677
8.82264
8.85908
8.94138
9.12371
9.2825
10.4769
230.597
1079.2
7.32352
7.418
7.52303
7.63986
7.77077
7.91993
8.09119
8.28709
8.50902
8.72607
8.88444
8.97069
8.98757
8.99687
9.05225
9.11539
9.84587
242.182
1044.12
7.26734
7.36236
7.46873
7.58794
7.72332
7.88154
8.06807
8.28522
8.53039
8.77238
8.95862
9.04405
9.05543
9.04606
9.10608
13.0357
11.4057
420.206
1092.8
7.20243
7.2967
7.40271
7.52194
7.65833
7.82005
8.01235
8.23514
8.49399
8.75342
8.96271
9.09011
9.1421
9.1934
9.42834
10.2006
13.5676
807.972
1178.77
7.12842
7.22048
7.32421
7.44106
7.57492
7.73495
7.92667
8.14836
8.40707
8.69422
8.95116
9.21128
9.29768
9.27376
9.32257
82.6294
803.692
1139.01
1263.76
7.04514
7.13332
7.23264
7.3445
7.47244
7.62779
7.82395
8.0692
8.35642
8.66035
8.89405
9.05806
38.5222
243.653
779.316
1028.57
1092.38
1192.03
1298.29
6.95271
7.03525
7.12775
7.23146
7.34916
7.49238
7.68168
7.93497
8.25583
8.55848
8.69474
129.184
747.092
913.418
918.583
769.969
890.852
1163.62
1279.66
6.85158
6.9268
7.01023
7.10226
7.20401
7.32447
7.48006
7.70298
8.04708
8.53821
8.80363
145.375
481.899
473.54
421.484
134.97
35.6132
759.731
1214.62
6.74245
6.80894
6.88157
6.95935
7.04177
7.12986
7.23146
7.35945
7.55666
28.2639
55.0177
56.7806
29.4364
8.00795
4.11048
4.89738
6.08069
62.9343
1117.69
6.62632
6.683
6.74346
6.80546
6.86664
6.92148
6.97048
7.00336
7.02303
59.0214
68.9045
57.5447
6.84118
3.32698
2.45469
2.64279
3.56829
9.47263
1079.11
6.50433
6.55054
6.5981
6.64379
6.6828
6.70785
6.70957
6.66238
6.58457
11.1602
70.8347
68.732
22.4651
1.77967
1.30263
0.840987
1.10127
35.9799
1135.34
6.37735
6.41278
6.44743
6.47722
6.49662
6.49764
6.45865
6.3497
6.18669
5.7204
39.7664
59.2126
11.2617
1.16186
0.0578259
-1.34242
-1.71622
252.876
1182.5
6.24649
6.27113
6.29316
6.30827
6.31123
6.29361
6.22527
6.09318
5.87902
19.3085
80.5491
39.8734
1.77781
0.937612
-0.824654
-2.74631
2.43663
582.653
1095.59
6.11449
6.12868
6.1387
6.14062
6.12923
6.09877
6.01683
5.92378
5.61461
72.2297
175.057
74.8328
2.12041
1.25351
-0.74565
-1.1861
65.0335
311.338
204.231
5.98433
5.98873
5.98767
5.97739
5.95236
5.90689
5.81327
5.75827
5.57102
101.225
182.967
147.077
9.04877
2.66843
1.00343
10.3404
90.71
27.7563
25.1021
5.85406
5.84893
5.83721
5.81492
5.77579
5.71
5.59283
5.46094
5.13961
8.84691
187.008
194.668
34.5505
4.43327
4.11708
16.3822
29.2509
14.3925
12.8154
5.71525
5.69968
5.67632
5.64114
5.58764
5.50442
5.36812
5.15911
4.63623
3.55167
156.693
200.979
111.739
5.50533
6.38784
10.1244
9.28497
7.59363
8.42864
)
;

boundaryField
{
    leftWall
    {
        type            fixedFluxPressure;
        gradient        uniform 0;
        value           nonuniform List<scalar> 
50
(
914.218
913.188
911.045
908.046
904.508
900.795
897.41
894.87
892.614
898.015
919.115
738.395
16.6823
7.33598
7.30652
7.26987
7.24167
7.21483
7.18773
7.16008
7.13142
7.10163
7.07065
7.03845
7.00501
6.97029
6.93422
6.89695
6.85832
6.81826
6.77675
6.73376
6.68924
6.6432
6.59565
6.54662
6.49612
6.44422
6.39098
6.33644
6.28068
6.2238
6.16594
6.10715
6.04729
5.98648
5.92548
5.86488
5.80408
5.7408
)
;
    }
    rightWall
    {
        type            fixedFluxPressure;
        gradient        uniform 0;
        value           nonuniform List<scalar> 
50
(
300.53
300.528
300.525
300.52
300.513
300.505
300.496
300.485
300.468
300.444
300.423
300.454
300.583
300.761
303.749
367.706
962.979
1699.63
1968.9
1836.2
1586.88
1320.38
1010.87
580.473
189.14
190.971
201.56
209.387
214.759
218.863
220.833
928.486
1041.36
1079.2
1044.12
1092.8
1178.77
1263.76
1298.29
1279.66
1214.62
1117.69
1079.11
1135.34
1182.5
1095.59
204.231
25.1021
12.8154
8.42864
)
;
    }
    lowerWall
    {
        type            fixedFluxPressure;
        gradient        uniform 0;
        value           nonuniform List<scalar> 
62
(
914.218
916.104
924.352
932.907
936.762
935.337
931.171
927.341
925.637
926.738
930.874
938.225
949.08
963.772
982.519
1005.44
1032.01
1059.82
1082.41
1092.74
1071.85
1057.91
1104.51
1104.51
1097.26
1098.4
1112.36
1131.75
1136.53
1120.19
1079.92
817.116
834.446
724.953
440.802
301.841
301.831
301.892
301.913
301.85
301.62
301.465
301.631
301.841
301.684
301.489
301.386
301.327
301.255
301.174
301.086
300.994
300.904
300.817
300.737
300.669
300.616
300.578
300.555
300.544
300.538
300.53
)
;
    }
    atmosphere
    {
        type            prghTotalPressure;
        rho             rho;
        psi             none;
        gamma           1;
        p0              uniform 0;
        value           nonuniform List<scalar> 
46
(
5.70688
5.70516
5.70542
5.70508
5.70487
5.70461
5.70431
5.70396
5.70356
5.70308
5.70251
5.70183
5.70101
5.70003
5.69883
5.69738
5.6956
5.69342
5.69071
5.68734
5.6831
5.67776
5.67096
5.66457
5.65989
5.65459
5.64856
5.63699
5.61509
5.58467
5.54186
5.48072
5.39142
5.2562
5.08595
4.65999
4.24781
162.737
205.826
113.017
5.57245
6.19825
8.86279
9.10264
7.6828
7.42579
)
;
        rho             rho;
    }
    defaultFaces
    {
        type            empty;
    }
}


// ************************************************************************* //
