/*--------------------------------*- C++ -*----------------------------------*\
  =========                 |
  \\      /  F ield         | OpenFOAM: The Open Source CFD Toolbox
   \\    /   O peration     | Website:  https://openfoam.org
    \\  /    A nd           | Version:  13
     \\/     M anipulation  |
\*---------------------------------------------------------------------------*/
FoamFile
{
    format      ascii;
    class       volScalarField;
    location    "0.4";
    object      rho;
}
// * * * * * * * * * * * * * * * * * * * * * * * * * * * * * * * * * * * * * //

dimensions      [1 -3 0 0 0 0 0];

internalField   nonuniform List<scalar> 
2268
(
1000
1000
1000
1000
1000
1000
1000
1000
1000
1000
1000
1000
1000
1000
1000
1000
1000
1000
1000
951.985
846.745
860.651
978.312
1000
1000
1000
1000
1000
1000
1000
1000
1000
1000
1000
1000
1000
1000
1000
1000
1000
1000
1000
996.989
865.114
929.385
998.343
1000
1000
1000
1000
1000
1000
1000
1000
1000
1000
1000
1000
1000
1000
1000
1000
1000
1000
1000
1000
984.527
993.875
998.365
1000
1000
1000
1000
1000
1000
1000
1000
1000
1000
1000
1000
1000
1000
1000
1000
1000
1000
1000
1000
999.997
999.964
998.413
1000
1000
1000
1000
1000
1000
1000
1000
1000
1000
1000
1000
1000
1000
1000
1000
1000
1000
1000
1000
1000
1000
998.445
1000
1000
1000
1000
1000
1000
1000
1000
1000
1000
1000
1000
1000
1000
1000
1000
1000
1000
1000
1000
1000
1000
998.689
1000
1000
1000
1000
1000
1000
1000
1000
1000
1000
1000
1000
1000
1000
1000
1000
1000
1000
1000
1000
1000
1000
998.774
1000
1000
1000
999.999
999.999
999.999
1000
1000
1000
1000
1000
1000
1000
1000
1000
1000
1000
1000
1000
1000
1000
1000
998.776
1.00029
1.00018
1.00001
1
1
1
1
1
1
1
1
1
1
1
1
1
1
1
1
1.00972
1.00397
1.00043
1
1
1
1
1
1
1
1
1
1
1
1
1
1
1
1
1.69743
1.0932
1.0002
1.00002
1
1
1
1
1
1
1
1
1
1
1
1
1
1
1
2.05014
1.66717
1.01991
1.00008
1
1
1
1
1
1
1
1
1
1
1
1
1
1
1
2.05139
2.03548
1.19091
1.00039
1.00001
1
1
1
1
1
1
1
1
1
1
1
1
1
1
1.48729
1.3591
1.21424
1.00057
1
1
1
1
1
1
1
1
1
1
1
1
1
1
1
1.34471
1.14327
1.10175
1.00487
1.00001
1
1
1
1
1
1
1
1
1
1
1
1
1
1
2.12647
2.71963
1.09022
1.00243
1
1
1
1
1
1
1
1
1
1
1
1
1
1
1
1000
1000
999.988
999.977
999.981
999.988
999.993
999.995
999.997
999.998
999.997
999.997
999.997
999.997
999.998
1000
1000
1000
1000
1000
1000
1000
998.923
1000
999.987
999.776
999.658
999.707
999.782
999.849
999.891
999.902
999.91
999.898
999.862
999.813
999.784
999.834
1000
1000
1000
999.999
999.998
999.999
1000
999.955
999.993
961.99
793.454
749.934
775.507
779.634
777.794
785.307
798.424
812.577
827.337
845.82
871.122
904.328
942.271
986.043
999.999
1000
1000
1000
1000
1000
1000
746.709
336.99
76.7062
70.7897
88.6117
79.63
69.4875
71.3421
77.9329
86.4675
95.9207
109.358
131.009
165.456
214.828
285.169
425.141
658.482
934.539
1000
1000
1000
999.998
9.16889
1
1
1
1
1
1
1
1
1
1
1
1
1
1
1.00015
3.7927
28.0226
111.771
279.003
568.969
928.084
999.997
1
1
1
1
1
1
1
1
1
1
1.00002
1.00017
1.00003
1
1.00099
1.01165
1.01216
1.01994
1.05488
1.82229
17.8073
131.699
375.409
1
1
1
1
1
1
1
1
1
1.00002
1.00038
1.00058
1.00039
1.00002
1.00003
1.11708
1.42387
1.43983
1.76239
2.28165
1.96604
1.4395
1.37655
1
1
1
1
1
1
1
1
1
1.00006
1.00058
1.00059
1.00046
1.00003
1.00003
1.11694
1.43999
1.86526
2.11676
2.18821
1.97814
1.16394
1.12652
1
1
1
1
1
1
1
1
1
1.00001
1.00028
1.00046
1.00001
1.0002
1.00054
1.03928
1
1
1.02838
1.25586
1.11618
1.11526
1.11437
1
1
1
1
1
1
1
1
1
1
1
1
1
1.00055
1.00376
1
1
1
1
1.07573
1.11921
1.13087
1.11434
1
1
1
1
1
1
1
1
1
1
1
1
1.00001
1.00035
1.00017
1
1
1
1
1.00358
1.22101
1.36365
1.55866
1
1
1
1
1
1
1
1
1
1
1
1
1
1.00003
1
1
1
1
1
1
1
1.00092
1.15422
1
1
1
1
1
1
1
1
1
1
1
1
1
1
1
1
1
1
1
1
1
1
1
1
1
1
1
1
1
1
1
1
1
1
1
1
1
1
1
1
1
1
1
1
1
1
1
1
1
1
1
1
1
1
1
1
1
1
1
1
1
1
1
1
1
1
1
1
1
1
1
1
1
1
1
1
1
1
1
1
1
1
1
1
1
1
1
1
1
1
1
1
1
1
1
1
1
1
1
1
1
1
1
1
1
1
1
1
1
1
1
1
1
1
1
1
1
1
1
1
1
1
1
1
1
1
1
1
1
1
1
1
1
1
1
1
1
1
1
1
1
1
1
1
1
1
1
1
1
1
1
1
1
1
1
1
1
1
1
1
1
1
1
1
1
1
1
1
1
1
1
1
1
1
1
1
1
1
1
1
1
1
1
1
1
1
1
1
1
1
1
1
1
1
1
1
1
1
1
1
1
1
1
1
1
1
1
1
1
1
1
1
1
1
1
1
1
1
1
1
1
1
1
1
1
1
1
1
1
1
1
1
1
1
1
1
1
1
1
1
1
1
1
1
1
1
1
1
1
1
1
1
1
1
1
1
1
1
1
1
1
1
1
1
1
1
1
1
1
1
1
1
1
1
1
1
1
1
1
1
1
1
1
1
1
1
1
1
1
1
1
1
1
1
1
1
1
1
1
1
1
1
1
1
1
1
1
1
1
1
1
1
1
1
1
1
1
1
1
1
1
1
1
1
1
1
1
1
1
1
1
1
1
1
1
1
1
1
1
1
1
1
1
1
1
1
1
1
1
1
1
1
1
1
1
1
1
1
1
1
1
1
1
1
1
1
1
1
1
1
1
1
1
1
1
1
1
1
1
1
1
1
1
1
1
1
1
1
1
1
1
1
1
1
1
1
1
1
1
1
1
1
1
1
1
1
1
1
1
1
1
1
1
1
1
1
1
1
1
1
1
1
1
1
1
1
1
1
1
1
1
1
1
1
1
1
1
1
1
1
1
1
1
1
1
1
1
1
1
1
1
1
1
1
1
1
1
1
1
1
1
1
1
1
1
1
1
1
1
1
1
1
1
1
1
1
1
1
1
1
1
1
1
1
1
1
1
1
1
1
1
1
1
1
1
1
1
1
1
1
1
1
1
1
1
1
1
1
1
1
1
1
1
1
1
1
1
1
1
1
1
1
1
1
1
1
1
1
1
1
1
1
1
1
1
1
1
1
1
1
1
1
1
1
1
1
1
1
1
1
1
1
1
1
1
1
1
1
1
1
1
1
1
1
1
1
1
1
1
1
1
1
1
1
1
1
1
1
1
1
1
1
1
1
1
1
1
1
1
1
1
1
1
1
1
1
1
1
1
1
1
1
1
1
1
1
1
1
1
1
1
1
1
1
1
1
1
1
1
1
1
1
1
1
1
1
1
1
1
1
1
1
1
1
1
1
1
1
1
1
1
1
1
1
1
1
1
1
1
1
1
1
1
1
1
1
1
1
1
1
1
1
1
1
1
1
1
1
1
1
1
1
1
1
1
1
1
1
1
1
1
1
1
1
1
1
1
1
1
1
999.561
999.987
784.403
259.669
999.892
999.996
999.987
935.497
999.998
999.997
999.996
999.958
999.997
999.997
999.997
999.974
999.997
999.997
999.995
999.983
608.284
768.193
936.746
999.976
18.5696
55.7391
126.953
234.979
1.18147
1.25586
1.82677
1.44589
1.1149
1.1176
1.12877
1.14312
1.11447
1.11457
1.11617
1.12144
1.55866
1.55736
1.53856
1.52489
1.29478
1.30849
1.34354
1.41115
1
1
1.01335
1.03259
1
1
1
1
1
1
1
1
1
1
1
1
1
1
1
1
1
1
1
1
1
1
1
1
1
1
1
1
1
1
1
1
1
1
1
1
1
1
1
1
1
1
1
1
1
1
1
1
1
1
1
1
1
1
1
1
1
1
1
1
1
1
1
1
1
1
1
1
1
1
1
1
1
1
1
1
1
1
1
1
1
1
1
1
1
1
1
1
1
1
1
1
1
1
1
1
1
1
1
1
1
1
1
1
1
1
1
1
1
1
1
1
1
1
1
1
6.56882
5.63532
1.00021
1.0001
1
1
1
1
1
1.00002
1.00001
1
1
1
1
1
1
1
1
223.778
1.00132
1.00084
1.00024
1.00001
1.00275
1.00693
1.01718
1.00014
1
1
1
1
1.00006
1.00002
1.00001
1
1
1
826.215
262.111
1.00132
1.00078
1.06141
1.00028
1.00211
1.00284
1.00007
1.00024
1.00571
1.00069
1.00127
1.00171
1.00097
1.00024
1.00005
1.00004
1.0001
999.929
974.759
203.964
24.8468
147.693
1.00028
1.00028
1.0004
1.00018
1.05875
1.00326
1.00076
1.00141
1.04777
1.02949
1.00725
1.00132
1.00123
1.00246
999.976
999.8
903.304
670.206
826.757
672.529
212.038
201.93
415.241
325.19
74.7894
1.00087
1.00435
4.04235
1.39301
1.15112
1.02005
1.02373
1.04244
999.8
999.456
999.206
995.567
984.922
980.712
929.526
913.643
960.731
955.846
887.976
727.228
664.598
481.989
109.758
36.6478
1.20669
1.19272
1.47148
491.725
783.79
931.299
986.758
980.712
980.879
980.712
979.045
977.084
976.622
976.505
974.965
969.795
961.576
961.3
672.836
65.4483
3.09052
4.33439
6.25306
70.1201
184.996
331.25
482.973
592.508
661.307
701.94
734.05
774.807
841.109
967.93
963.722
962.061
961.786
961.334
653.289
72.276
45.0012
1.17198
1.26029
1.6201
1.79817
4.71392
16.0378
31.694
46.2754
59.5926
80.1218
122.142
214.131
390.628
795.962
961.334
958.622
955.498
568.604
383.75
1.13099
1.15588
1.22662
1.42559
1.57172
1.70265
2.25092
2.23108
1.22118
1.09919
1.18388
1.9816
1.55414
52.3653
453.216
948.157
948.823
896.4
595.755
1.53642
1.57139
1.57928
1.58035
1.5696
1.45536
1.2773
1.12393
1.00818
1.00155
1.00436
1.01172
1.04947
1.26527
2.28515
609.046
942.698
936.553
598.112
1.50248
1.53714
1.55437
1.35928
1.08945
1.00417
1.00095
1.00023
1.00003
1.00004
1.00008
1.00024
1.00112
1.00947
1.11414
257.96
886.537
930.438
556.481
1.05897
1.07426
1.06198
1.00653
1.00012
1.00002
1.00001
1
1.00003
1.00003
1.00003
1.00003
1.00011
1.00108
1.01728
96.9227
777.753
927.339
510.002
1.00005
1.00002
1.00001
1
1
1
1
1
1.00021
1.00017
1.00003
1.00003
1.00003
1.00015
1.01081
38.4085
658.714
921.889
459.804
1
1
1
1
1
1
1
1
1
1.00035
1.0036
1.00103
1.00009
1.00106
1.06202
1.02876
589.238
864.911
375.959
1
1
1
1
1
1
1
1
1
1.00031
1.00878
1.00885
1.00013
1.00038
1.00316
1.00492
602.945
656.684
218.789
1
1
1
1
1
1
1
1
1
1
1.00537
1.00898
1.00732
1.00102
1.00104
12.5681
640.316
425.336
64.1133
1
1
1
1
1
1
1
1
1
1
1
1.00902
1.00909
1.00108
1.00192
60.2572
640.368
222.517
61.8943
1
1
1
1
1
1
1
1
1
1
1
1.00679
1.00908
1.00118
1.03633
87.9282
638.583
123.25
61.6873
1
1
1
1
1
1
1.00011
1.00063
1.00058
1.00009
1
1.00307
1.00909
1.00206
1.00964
66.8825
633.378
165.041
61.6656
1
1
1
1
1
1
1.0003
1.00174
1.00173
1.00046
1
1.00092
1.00908
1.00638
1.10102
16.1133
512.064
343.824
61.6638
1
1
1
1
1
1
1
1.00076
1.00174
1.00165
1.0005
1.00144
1.00905
1.00834
1.02903
7.92512
205.796
361.372
61.6638
1
1
1
1
1
1.00001
1.00001
1.00001
1.00156
1.0019
1.0019
1.00206
1.00264
1.00409
1.07882
3.79755
4.23944
362.706
61.6638
1
1
1
1
1
1.00004
1.00048
1.00049
1.00107
1.0019
1.0019
1.00079
1.00031
1.00083
1.03642
1.27954
3.57113
362.093
266.83
1
1
1
1
1
1
1.00139
1.00163
1.00163
1.00118
1.00115
1.0005
1.00025
1.00032
1.00615
1.02008
4.66223
182.531
283.326
1
1
1
1
1
1
1.00015
1.00142
1.00163
1.0012
1.00036
1.00033
1.00019
1.00034
1.00392
1.01396
1.21346
61.0269
283.307
1
1
1
1
1
1
1
1
1.00063
1.00119
1.00052
1.0001
1.0001
1.00038
1.00267
1.02919
1.08399
61.8884
258.99
1
1
1
1
1
1.00004
1.00019
1.00014
1.00014
1.00039
1.00053
1.0001
1.00007
1.0001
1.00103
1.92375
1.24698
104.844
246.454
1
1
1
1
1
1.00013
1.00035
1.00035
1.0003
1.00021
1.00025
1.0001
1.00005
1.00005
1.00006
1.00034
1.44144
192.944
245.908
1
1
1
1
1
1.00004
1.00009
1.00027
1.00042
1.00032
1.00004
1.00004
1.00005
1.00005
1.00005
18.5819
190.807
243.05
244.39
1
1
1
1
1
1.00002
1.00001
1.00001
1.00004
1.00006
1.00003
1.00003
7.91372
56.3691
183.082
238.857
241.52
242.161
242.478
1
1
1
1
1.00001
1.00001
1.00001
1.00001
1.00002
1.00002
1.00002
28.3884
169.971
208.036
208.036
172.324
194.669
241.581
241.846
1
1
1
1
1.00001
1.00001
1.00002
1.00001
1.00002
1.00001
1.00002
31.0519
105.227
103.704
92.0452
29.4575
6.36455
160.203
241.515
1
1
1
1
1
1
1.00036
1.00005
1.00001
5.37835
11.1829
12.1417
6.7894
2.27877
1.28318
1.24099
1.14609
12.3207
232.487
1
1
1
1
1
1
1.00041
1.00011
1.00001
11.8792
14.5653
12.5651
2.03685
1.31439
1.08898
1.05624
1.12549
2.24779
221.307
1
1
1
1
1
1
1.00038
1.00019
1
1.98717
14.4178
14.5389
5.25635
1.08852
1.05354
1.04543
1.05398
8.72065
227.769
1
1
1
1
1
1
1
1
1
1
7.96949
12.3288
2.97231
1.05578
1.04458
1.04501
1.1053
51.6305
227.34
1
1
1
1
1
1
1
1
1
3.75117
16.1965
8.44643
1.08795
1.04458
1.04458
1.08526
2.49114
114.514
207.476
1
1
1
1
1
1
1
1
1
13.7943
33.9176
14.8974
1.10904
1.04555
1.04458
1.49673
14.1734
59.53
35.3556
1
1
1
1
1
1
1
1
1
18.5384
34.3777
27.9442
2.24327
1.08903
1.0453
3.10081
17.7062
4.70547
2.73415
1
1
1
1
1
1
1
1
1
1.75972
34.6157
35.9268
6.52652
1.09367
1.07729
3.09615
5.414
2.14648
1.32408
1
1
1
1
1
1
1
1
1
1
28.4057
35.9268
19.727
1.02402
1.0819
1.54699
1.58886
1.34103
1.29617
)
;

boundaryField
{
    leftWall
    {
        type            calculated;
        value           nonuniform List<scalar> 
50
(
1000
1000
1000
1000
1000
1000
1000
1000
1000
1000
999.993
746.709
9.16889
1
1
1
1
1
1
1
1
1
1
1
1
1
1
1
1
1
1
1
1
1
1
1
1
1
1
1
1
1
1
1
1
1
1
1
1
1
)
;
    }
    rightWall
    {
        type            calculated;
        value           nonuniform List<scalar> 
50
(
1
1
1
1
1
1
1
1
1
1
1.0001
1.00246
1.04244
1.47148
4.33439
45.0012
383.75
595.755
598.112
556.481
510.002
459.804
375.959
218.789
64.1133
61.8943
61.6873
61.6656
61.6638
61.6638
61.6638
266.83
283.326
283.307
258.99
246.454
245.908
244.39
242.478
241.846
241.515
232.487
221.307
227.769
227.34
207.476
35.3556
2.73415
1.32408
1.29617
)
;
    }
    lowerWall
    {
        type            calculated;
        value           nonuniform List<scalar> 
62
(
1000
1000
1000
1000
1000
1000
1000
1000
1000
1000
1000
1000
1000
1000
1000
1000
1000
1000
1000
951.985
846.745
860.651
978.312
978.312
998.343
998.365
998.413
998.445
998.689
998.774
998.776
999.561
999.987
784.403
259.669
1.00029
1.00972
1.69743
2.05014
2.05139
1.48729
1.34471
2.12647
1.00029
1.00018
1.00001
1
1
1
1
1
1
1
1
1
1
1
1
1
1
1
1
)
;
    }
    atmosphere
    {
        type            calculated;
        value           nonuniform List<scalar> 
46
(
1
1
1
1
1
1
1
1
1
1
1
1
1
1
1
1
1
1
1
1
1
1
1
1
1
1
1
1
1
1
1
1
1
1
1
1
1
28.4057
35.9268
19.727
1
1.0819
1.54699
1.58886
1.34103
1.29617
)
;
    }
    defaultFaces
    {
        type            empty;
    }
}


// ************************************************************************* //
