/*--------------------------------*- C++ -*----------------------------------*\
  =========                 |
  \\      /  F ield         | OpenFOAM: The Open Source CFD Toolbox
   \\    /   O peration     | Website:  https://openfoam.org
    \\  /    A nd           | Version:  13
     \\/     M anipulation  |
\*---------------------------------------------------------------------------*/
FoamFile
{
    format      ascii;
    class       volScalarField;
    location    "0.2";
    object      alpha.water;
}
// * * * * * * * * * * * * * * * * * * * * * * * * * * * * * * * * * * * * * //

dimensions      [];

internalField   nonuniform List<scalar> 
2268
(
1
1
1
1
1
1
1
1
1
1
1
1
1
1
1
1
1
1
1
1
0.999979
0.885547
0.765454
1
1
1
1
1
1
1
1
1
1
1
1
1
1
1
1
1
1
1
1
1
0.996399
0.856763
1
1
1
1
1
1
1
1
1
1
1
1
1
1
1
1
1
1
1
1
1
0.999999
0.893201
1
1
1
1
1
1
1
1
1
1
1
1
1
1
1
1
1
1
1
1
1
1
0.924318
1
1
1
1
1
1
1
1
1
1
1
1
1
1
1
1
1
1
1
1
1
1
0.958732
1
1
1
1
1
1
1
1
1
1
1
1
1
1
1
1
1
1
1
1
1
1
0.964518
1
1
1
1
1
1
1
1
1
1
1
1
1
1
1
1
1
1
1
1
1
1
0.953486
1
1
1
1
1
1
1
1
1
1
1
1
1
1
1
1
1
1
1
0.999999
0.999999
1
0.953531
1.15783e-18
2.67403e-19
5.81596e-20
5.05855e-21
1.21964e-22
2.06587e-24
8.16652e-26
4.27115e-27
1.84033e-28
6.33966e-30
1.84714e-31
4.5894e-33
9.52992e-35
1.61877e-36
2.17504e-38
2.21257e-40
1.56754e-42
5.32759e-45
2.70393e-45
1.44485e-17
2.45873e-17
9.82741e-18
9.56477e-19
2.39524e-20
4.33099e-22
1.36483e-23
5.35218e-25
1.94963e-26
6.11863e-28
1.65925e-29
3.85192e-31
7.48945e-33
1.19145e-34
1.48615e-36
1.36331e-38
8.08122e-41
1.83859e-43
2.70393e-45
5.58086e-16
1.72839e-15
1.2404e-15
1.44449e-16
3.05272e-18
5.01245e-20
1.10648e-21
2.96955e-23
8.25753e-25
2.16905e-26
5.18168e-28
1.08952e-29
1.94515e-31
2.83648e-33
3.21229e-35
2.57436e-37
1.32162e-39
2.26146e-42
5.63454e-44
2.14863e-14
1.72933e-13
2.80006e-13
2.05274e-14
2.78665e-16
3.6082e-18
6.52686e-20
1.30939e-21
2.75632e-23
5.90395e-25
1.21533e-26
2.27046e-28
3.6699e-30
4.86918e-32
5.12266e-34
3.98389e-36
1.82049e-38
4.62517e-41
1.5469e-42
9.45428e-13
7.12814e-12
7.88573e-12
3.59299e-13
5.63081e-15
8.41537e-17
2.05786e-18
3.84583e-20
6.65123e-22
1.19804e-23
2.15089e-25
3.62323e-27
5.47442e-29
7.14114e-31
7.62901e-33
6.04196e-35
2.73137e-37
3.52821e-40
3.04085e-41
1.74425e-11
9.63102e-11
1.99638e-11
1.03793e-12
2.63154e-14
6.23069e-16
2.22879e-17
4.99155e-19
9.27712e-21
1.60591e-22
2.65769e-24
4.15165e-26
5.90869e-28
7.2951e-30
7.42246e-32
5.80399e-34
3.25553e-36
1.44005e-38
4.64926e-40
8.65666e-11
1.87394e-10
3.42147e-11
8.60126e-13
4.40764e-14
2.29788e-15
6.91475e-17
2.0264e-18
6.25072e-20
1.46871e-21
2.58492e-23
3.83953e-25
5.04651e-27
5.76922e-29
5.44634e-31
4.07365e-33
2.6075e-35
1.72237e-37
5.79288e-39
8.67629e-11
1.70298e-10
5.2412e-11
3.88359e-12
8.76815e-14
8.29106e-15
1.01388e-16
3.61218e-19
4.41049e-20
8.39852e-21
2.28253e-22
3.79971e-24
4.87993e-26
5.20931e-28
4.10175e-30
2.23806e-32
7.98543e-35
2.95561e-37
5.4933e-38
1
1
1
1
1
1
1
1
1
1
1
1
1
1
1
1
1
1
1
1
1
1
0.975674
1
1
1
1
1
1
1
1
1
1
1
1
1
1
0.999998
0.999997
0.999999
0.999999
0.999856
0.999999
0.999999
1
0.999999
1
1
1
1
1
1
1
1
1
1
1
1
0.999999
0.999997
0.999967
0.999928
0.999927
0.999935
0.997171
0.999983
0.999997
0.999999
0.999972
1
1
1
1
1
1
1
1
1
1
0.999999
0.999997
0.999988
0.999909
0.999715
0.999254
0.996633
0.927553
0.820148
0.600406
0.493955
0.591626
0.85757
1
1
1
1
1
1
1
1
0.999999
0.999998
0.999992
0.999954
0.999889
0.999513
0.997689
0.875498
0.589302
0.141068
0.000380993
0.00531737
0.00460014
0.016585
0.103011
1
0.999999
0.999999
0.999999
0.999999
0.999999
0.999998
0.999995
0.999987
0.999967
0.999901
0.999609
0.998715
0.9805
0.657257
0.0999116
0.000706595
0.000122199
2.96087e-05
1.05789e-05
8.39896e-05
0.000720889
0.00308958
0.999999
0.999993
0.999994
0.999993
0.99999
0.999983
0.99997
0.999938
0.999847
0.9996
0.998878
0.995924
0.878437
0.391764
0.0017751
0.00043795
0.000114328
2.61593e-05
4.0378e-06
1.33269e-06
2.7707e-06
3.63314e-05
0.000354966
0.999983
0.999921
0.999929
0.999915
0.999874
0.999794
0.999648
0.999298
0.998319
0.993432
0.906732
0.600389
0.141399
0.000286169
0.000348965
0.000114136
2.15746e-05
3.65262e-06
1.26358e-06
7.3632e-07
3.80636e-07
1.75562e-06
2.23028e-05
0.999741
0.999158
0.999211
0.99903
0.998567
0.99772
0.993762
0.951316
0.822868
0.546238
0.2095
0.000142283
4.04603e-05
2.19782e-05
0.000302265
0.00146153
0.000651411
2.19006e-05
7.36784e-07
3.29138e-07
3.04728e-07
3.65174e-07
1.61864e-06
0.985479
0.927401
0.925271
0.891574
0.824416
0.715633
0.540646
0.314594
0.111559
6.57289e-06
7.12475e-06
1.30908e-05
1.91806e-05
1.82668e-05
0.00111889
0.00367183
0.00244658
4.8686e-05
9.87126e-07
3.23549e-07
2.80694e-07
5.61585e-06
4.51801e-06
0.439322
0.257354
0.24772
0.192582
0.120036
0.0480295
9.18344e-10
1.2026e-10
9.92655e-08
5.3081e-08
3.75656e-06
7.10583e-06
1.24939e-05
1.83636e-05
0.00209474
0.0036745
0.00295663
8.41475e-05
4.97044e-07
1.09444e-07
1.66999e-07
5.12193e-06
3.99317e-06
-1.31141e-20
-7.72971e-61
3.20461e-21
1.84208e-19
2.10895e-17
1.7953e-15
1.07783e-13
1.24096e-12
1.92148e-11
4.48288e-09
6.62294e-08
5.84971e-06
1.58523e-05
1.82001e-05
0.00182339
0.00367746
0.00271981
5.37813e-05
1.79343e-07
2.29077e-09
6.3072e-08
1.93495e-08
5.59277e-08
-1.26451e-19
9.5e-24
2.82817e-20
2.43604e-18
2.46939e-16
3.17718e-14
2.58985e-13
1.05781e-11
1.08475e-09
1.6243e-08
7.66793e-07
0.000485824
0.000344562
2.22554e-05
0.00159031
0.00367746
0.00195246
4.91006e-06
5.91813e-08
1.1046e-09
1.48035e-09
1.7541e-08
1.93495e-08
-1.57077e-19
2.1792e-21
3.03332e-18
3.61542e-16
3.67817e-14
2.7988e-12
1.87018e-12
1.73957e-11
1.44344e-09
9.80107e-08
0.000344463
0.000787245
0.000786274
5.18419e-05
0.00124394
0.00367746
0.000734147
4.95621e-09
4.63932e-10
8.90874e-10
1.22429e-09
3.39086e-08
5.65793e-07
-1.01049e-19
1.99087e-19
3.80256e-17
3.7205e-15
2.31226e-13
9.89969e-12
1.05729e-10
1.05353e-10
6.31235e-08
7.28295e-06
0.000778625
0.00078386
0.000788975
8.79915e-05
0.0009386
0.00194791
6.65185e-08
3.5678e-10
3.54084e-10
5.15698e-10
2.83435e-09
5.3325e-08
6.60604e-07
-2.52323e-20
1.29602e-18
1.82918e-16
1.56595e-14
7.05959e-13
1.51766e-11
2.78355e-10
6.6871e-09
1.29973e-08
2.52693e-05
0.000492908
0.000778625
0.000775126
0.000369454
0.000916665
0.000559195
3.73513e-09
1.00308e-10
2.79959e-10
3.82866e-10
3.65309e-09
3.7619e-08
3.23549e-07
1.18197e-20
2.84251e-18
3.81974e-16
3.7467e-14
2.12774e-12
2.25027e-11
3.86908e-11
9.38431e-10
8.85793e-09
4.53006e-09
1.62968e-08
0.000261091
0.000164778
1.13169e-05
1.93504e-07
1.89403e-08
8.44154e-11
2.49732e-11
1.38654e-10
3.14769e-10
2.68223e-09
2.34745e-08
2.11027e-07
2.43837e-20
2.59034e-18
3.36398e-16
4.78993e-14
4.17331e-12
4.12655e-11
7.3068e-11
5.6422e-11
8.1311e-11
7.05878e-10
1.54198e-09
5.49673e-09
1.27081e-08
3.00153e-08
3.22875e-07
2.1398e-11
8.44137e-11
5.79241e-12
3.13601e-11
1.78118e-10
1.39603e-09
1.22129e-08
1.03243e-07
2.13571e-20
3.10361e-19
3.57762e-17
3.06965e-14
4.89662e-12
4.50145e-11
6.87745e-11
3.5919e-11
5.95558e-11
3.0718e-10
1.73612e-08
7.73e-08
1.02135e-07
5.6178e-08
5.42073e-09
1.62514e-14
1.01139e-13
3.09285e-12
1.9449e-11
6.83367e-11
4.08588e-10
3.41988e-09
2.8217e-08
4.4559e-21
5.25926e-20
3.96222e-18
8.18644e-15
1.27227e-12
1.26583e-11
2.59673e-11
1.92912e-11
3.10328e-11
3.094e-10
4.98377e-08
1.59437e-07
1.59345e-07
9.01974e-08
1.62518e-14
4.66236e-15
2.00839e-14
4.87223e-13
3.99727e-12
1.77314e-11
6.08172e-11
3.94428e-10
3.59454e-09
1.1911e-22
2.84866e-20
8.04733e-18
5.77055e-15
5.94141e-14
1.31913e-13
3.42351e-13
1.55329e-11
1.06805e-10
1.69075e-10
1.4305e-10
1.54788e-10
2.03308e-12
2.82085e-14
3.60101e-11
3.31419e-15
1.37943e-14
3.81025e-14
3.27e-13
2.53078e-12
1.26426e-11
5.47185e-11
5.324e-10
1.9176e-24
1.08282e-22
9.36648e-21
1.38487e-19
8.24552e-18
3.83658e-16
3.53662e-14
5.55821e-12
8.12496e-11
2.14791e-10
2.15498e-10
1.49089e-10
2.01096e-11
2.09546e-14
2.0415e-14
8.64868e-16
1.92848e-15
5.34469e-15
2.47432e-14
1.99264e-13
1.85136e-12
2.27915e-11
1.40964e-10
3.27794e-25
1.32648e-23
1.81186e-21
2.65171e-20
1.70221e-18
3.10129e-16
5.67692e-14
6.64796e-13
1.86726e-12
2.0969e-12
2.30185e-12
8.78745e-13
4.07604e-13
2.70942e-13
9.67583e-14
5.09105e-16
4.8453e-16
1.12478e-15
2.0378e-15
1.10316e-14
1.10605e-13
1.71577e-12
1.97705e-11
1.17618e-26
5.07854e-25
1.59297e-22
1.36708e-20
6.68329e-19
2.17406e-17
5.33137e-15
2.83558e-13
1.8793e-12
3.32727e-12
3.42389e-12
3.0484e-12
1.00424e-12
1.59646e-13
9.67192e-15
3.12704e-16
1.26346e-16
1.10206e-16
1.60267e-16
5.08958e-16
5.20836e-15
7.31722e-14
1.31728e-12
4.76028e-28
7.1775e-27
9.734e-25
1.15325e-21
4.61657e-20
1.4837e-19
1.72551e-17
1.01562e-14
2.28742e-13
1.11331e-12
2.09196e-12
1.99444e-12
1.29432e-12
2.73439e-13
2.2302e-14
1.2356e-15
1.51365e-16
6.37355e-18
4.09493e-18
1.94204e-17
2.06267e-16
2.9325e-15
5.8072e-14
4.48293e-31
2.30574e-29
3.76277e-27
3.28803e-25
1.88078e-23
9.95676e-22
7.78554e-21
5.13605e-18
5.92438e-16
5.44792e-15
1.39268e-14
1.75051e-14
1.21473e-14
5.88076e-15
3.3603e-15
1.5326e-15
2.24444e-16
2.82011e-18
1.21194e-19
5.95918e-19
6.92985e-18
9.8152e-17
2.0543e-15
4.99201e-33
6.71361e-32
1.50388e-29
1.87159e-27
1.16717e-25
1.7308e-23
2.0869e-22
5.24855e-20
4.32433e-18
3.86519e-17
1.13606e-16
1.79219e-16
2.05467e-16
2.0874e-16
2.22343e-16
2.29947e-16
8.67006e-17
1.21027e-18
2.52209e-20
1.20657e-20
2.00367e-19
2.93226e-18
6.20272e-17
1.20635e-36
2.03241e-35
4.45242e-33
8.50407e-31
6.1166e-29
3.50731e-27
4.28196e-25
1.50736e-25
7.73195e-22
7.17048e-20
7.61875e-19
2.47082e-18
3.91226e-18
4.28225e-18
2.49207e-18
9.61388e-19
4.06742e-19
6.73078e-20
2.93877e-21
1.79155e-22
5.06887e-21
8.65116e-20
1.70769e-18
4.46451e-41
4.59494e-39
6.0166e-37
7.52386e-35
5.22599e-33
3.3692e-31
1.97168e-29
1.17329e-28
2.48146e-25
1.34807e-22
2.56e-21
1.16326e-20
2.16352e-20
2.5028e-20
1.47663e-20
2.23812e-21
2.40661e-22
1.14249e-22
3.88724e-23
4.34241e-24
1.09156e-22
2.37166e-21
4.31864e-20
1.8668e-44
2.09008e-42
3.09669e-40
3.15598e-38
2.2952e-36
1.87185e-34
9.56198e-33
6.11769e-31
4.43292e-30
1.34165e-26
1.01057e-24
1.11673e-23
3.7354e-23
5.91539e-23
6.3515e-23
2.83413e-23
3.56785e-24
2.4006e-26
1.79324e-26
1.74907e-25
1.99704e-24
6.27557e-23
9.9174e-22
1.49465e-49
3.12373e-47
4.93931e-45
5.44906e-43
4.4323e-41
3.44228e-39
2.25353e-37
8.57246e-34
5.74171e-33
4.67233e-32
1.08611e-28
7.10097e-27
7.6112e-26
2.35053e-25
3.30946e-25
3.06499e-25
6.70274e-26
4.42174e-28
2.37921e-28
2.78953e-27
3.11956e-26
1.04219e-24
1.95974e-23
3.6238e-53
9.71469e-51
1.64425e-48
1.92519e-46
1.68612e-44
1.20171e-42
1.00264e-40
6.72601e-39
1.2215e-35
1.48746e-37
2.22151e-32
4.17658e-30
7.75987e-29
3.41637e-28
5.78475e-28
6.00695e-28
1.8034e-28
5.20125e-30
5.15995e-31
2.19633e-29
4.12303e-28
1.31607e-26
3.34599e-25
7.72532e-59
2.99471e-56
5.83325e-54
7.60383e-52
7.4732e-50
5.92734e-48
3.96065e-46
2.93394e-44
1.87267e-42
1.00472e-39
7.29011e-39
4.04119e-36
2.32097e-33
7.76674e-32
5.27747e-31
1.16273e-30
1.36149e-30
5.82309e-31
3.52162e-33
2.16034e-31
4.67595e-30
1.46092e-28
4.94568e-27
6.6309e-63
2.89709e-60
6.361e-58
9.35315e-56
1.03822e-53
9.32297e-52
7.07528e-50
7.50195e-48
4.60603e-46
4.05188e-42
2.82354e-43
4.85435e-40
1.33434e-36
9.03441e-35
9.75438e-34
2.78567e-33
3.60526e-33
1.92058e-33
3.38934e-35
1.76401e-33
4.51756e-32
1.51188e-30
6.33591e-29
3.31229e-67
1.62643e-64
3.97446e-62
6.49434e-60
8.00697e-58
7.96454e-56
6.67354e-54
8.12931e-52
6.93104e-50
3.93087e-48
2.64895e-45
1.37372e-43
1.0973e-40
2.00993e-38
4.00062e-37
1.64928e-36
2.48009e-36
1.9963e-36
4.93401e-37
1.17982e-35
3.67074e-34
1.53593e-32
7.00951e-31
3.71869e-73
2.35125e-70
7.36771e-68
1.5389e-65
2.419e-63
3.05897e-61
3.24708e-59
2.98123e-57
2.52452e-55
1.99517e-53
2.73541e-49
9.98205e-48
6.0432e-48
2.28885e-44
1.36749e-41
5.64606e-40
3.93185e-39
8.30052e-39
1.00508e-38
6.31223e-38
2.482e-36
1.223e-34
6.5743e-33
6.71438e-77
4.6796e-74
1.61769e-71
3.73363e-69
6.4962e-67
9.11128e-65
1.07539e-62
1.10174e-60
1.00214e-58
1.52931e-56
1.12294e-54
1.39155e-51
4.86148e-52
1.16398e-48
5.99953e-45
5.41544e-43
6.42363e-42
1.88284e-41
2.74644e-41
2.78597e-40
1.38399e-38
7.24515e-37
5.02663e-35
1.38192e-82
1.2148e-79
5.23353e-77
1.50165e-74
3.24965e-72
5.67621e-70
8.35505e-68
1.06826e-65
1.21318e-63
1.95165e-61
2.25814e-59
2.04779e-57
4.00276e-54
1.38883e-52
3.56532e-49
1.33667e-46
3.98328e-45
2.28292e-44
5.40828e-44
9.2134e-43
5.94807e-41
3.13667e-39
2.81475e-37
2.30239e-89
3.38716e-86
2.30262e-83
1.0278e-80
3.44235e-78
9.2695e-76
2.09426e-73
4.08864e-71
7.05334e-69
1.09443e-66
1.75915e-64
2.36761e-62
7.54172e-58
2.40158e-56
5.94919e-56
5.73385e-53
2.07215e-49
1.36957e-47
1.5799e-46
2.17897e-45
1.91816e-43
1.08238e-41
7.43901e-40
6.2479e-94
1.18825e-90
1.00836e-87
5.54918e-85
2.27567e-82
7.47686e-80
2.05889e-77
4.90238e-75
1.03319e-72
1.96588e-70
5.39687e-68
9.09031e-66
1.4272e-63
9.55301e-60
2.5323e-60
3.11496e-57
6.97607e-53
1.61211e-50
3.47298e-49
2.88253e-48
3.94157e-46
3.38633e-44
6.32765e-43
6.93778e-102
2.70484e-98
4.15232e-95
4.01909e-92
2.87372e-89
1.64049e-86
7.82985e-84
3.22288e-81
1.17024e-78
3.82035e-76
1.13574e-73
3.68054e-71
1.34015e-68
3.35217e-66
1.08509e-62
1.64697e-60
9.07231e-58
7.89881e-54
4.91078e-52
2.48823e-51
3.22106e-49
5.46724e-47
1.7772e-45
5.63729e-116
1.08697e-111
5.65203e-108
1.76491e-104
4.06497e-101
7.49389e-98
1.1556e-94
1.53624e-91
1.79951e-88
1.88953e-85
1.80485e-82
1.58662e-79
2.08106e-76
1.59298e-73
8.97585e-68
4.06702e-65
5.63137e-67
1.03864e-60
3.71445e-56
2.34788e-54
2.3916e-54
2.58796e-50
4.39338e-48
0.997903
0.86903
0.010002
0.00355348
0.999683
0.984173
0.972063
0.629246
0.999722
0.999433
0.997925
0.992849
0.999403
0.997914
0.992855
0.986791
0.206234
0.339856
0.797238
0.982568
0.00409764
0.00583902
0.0679961
0.581451
0.000719282
0.000878736
0.00178529
0.0998867
6.98276e-05
0.00013092
0.000212967
0.00168391
1.10132e-05
2.1415e-05
2.8387e-05
0.000200922
5.1366e-06
7.15139e-06
9.53286e-06
2.74895e-05
4.20275e-06
5.1366e-06
7.04077e-06
9.50143e-06
1.84369e-05
2.68911e-05
9.40418e-06
1.181e-05
1.66755e-05
4.88572e-05
1.31983e-05
1.52403e-05
4.21619e-06
2.67463e-05
0.000264372
1.84274e-05
5.81618e-06
5.4401e-05
0.000833399
0.00135606
3.08192e-06
3.11508e-05
0.000264061
0.00119229
1.78227e-06
1.28465e-05
4.9376e-05
0.000321308
8.22778e-07
5.07706e-06
1.85317e-05
6.06231e-05
2.19756e-07
8.72632e-07
3.24035e-06
1.00004e-05
2.35981e-08
1.31923e-07
5.54112e-07
1.31717e-06
2.21232e-09
2.53471e-08
9.833e-08
1.3223e-07
1.87176e-10
2.54461e-09
9.00877e-09
1.02877e-08
4.09594e-11
2.27181e-10
6.43367e-10
7.81055e-10
4.68306e-12
2.70303e-11
5.36099e-11
5.1258e-11
2.09633e-13
1.72977e-12
3.83202e-12
2.97274e-12
6.29434e-15
6.02496e-14
1.89687e-13
1.51839e-13
1.80345e-16
1.50885e-15
7.4816e-15
6.79563e-15
4.3678e-18
3.30523e-17
2.56684e-16
2.69326e-16
8.59451e-20
8.20371e-19
7.67708e-18
9.37557e-18
1.18753e-21
1.60703e-20
1.98458e-19
2.90843e-19
2.14763e-23
1.97047e-22
4.3028e-21
8.09499e-21
4.02339e-25
3.54257e-24
7.20104e-23
2.03318e-22
6.65405e-27
6.55504e-26
7.75118e-25
4.63215e-24
9.75312e-29
1.08683e-27
1.09152e-26
9.71134e-26
1.2694e-30
1.61921e-29
1.84342e-28
1.84527e-27
1.46586e-32
2.16967e-31
2.83472e-30
3.22753e-29
1.49552e-34
2.61172e-33
3.97354e-32
5.21411e-31
1.33658e-36
2.81283e-35
5.0717e-34
7.78675e-33
1.03186e-38
2.68935e-37
5.86902e-36
1.07221e-34
6.76823e-41
2.26396e-39
6.12362e-38
1.35376e-36
3.48521e-43
1.61622e-41
5.64752e-40
1.54225e-38
1.7772e-45
3.48517e-43
1.61604e-41
5.64657e-40
9.23247e-11
7.64242e-10
1.51236e-09
1.54923e-10
3.04281e-12
1.00708e-13
6.58083e-15
1.56606e-17
1.80648e-19
3.67623e-21
1.51596e-21
3.94562e-23
6.22887e-25
8.5339e-27
9.06882e-29
6.72522e-31
2.70149e-33
2.61412e-36
7.56086e-37
0.00499981
2.73503e-07
9.14623e-08
6.18293e-08
1.6175e-10
4.18059e-12
1.00767e-13
1.25503e-15
1.56595e-17
1.80648e-19
1.18506e-20
1.8396e-22
2.39306e-24
2.82359e-26
2.87457e-28
2.29352e-30
1.19936e-32
2.92483e-35
3.64102e-36
0.399356
6.27509e-05
7.05943e-06
2.56641e-06
3.45996e-08
2.81071e-10
6.80548e-12
1.02632e-13
1.54634e-15
1.96196e-17
9.93862e-19
1.06481e-20
8.40499e-23
5.81169e-25
5.33111e-27
3.29267e-29
1.3534e-31
2.79872e-34
5.32952e-36
0.903387
0.130117
0.000223637
9.92712e-05
3.59078e-06
2.82232e-08
3.11569e-10
5.64235e-12
1.09235e-13
4.74499e-15
7.00251e-17
7.05e-19
5.98104e-21
6.95663e-23
6.36001e-25
4.46588e-27
2.09345e-29
3.2444e-32
1.78299e-34
0.940243
0.367625
0.00657243
0.000174199
3.49052e-05
7.79543e-07
9.32946e-09
1.68337e-10
3.68974e-12
7.54732e-14
2.13052e-15
2.6735e-17
2.35018e-19
2.82821e-21
3.2333e-23
2.60473e-25
1.57033e-27
5.26214e-30
1.92109e-32
0.899705
0.594571
0.0375999
0.000692153
4.29857e-05
2.50372e-06
6.34745e-08
1.82998e-09
4.51396e-11
9.81539e-13
1.88461e-14
3.88649e-16
4.00623e-18
4.38842e-20
3.93816e-22
3.76504e-24
2.20691e-26
7.68952e-29
1.15023e-30
0.758462
0.722085
0.0911598
0.00147321
0.000111051
5.77102e-06
2.30017e-07
7.35493e-09
1.96179e-10
4.47865e-12
9.30242e-14
2.3883e-15
3.25135e-17
2.79797e-19
2.4503e-21
1.73652e-23
8.84243e-26
2.37125e-28
2.5829e-29
0.619737
0.65061
0.159101
0.00180712
0.00014924
8.16709e-06
3.36816e-07
1.10926e-08
3.0598e-10
7.26715e-12
1.6197e-13
6.0328e-15
1.02287e-16
1.19424e-18
1.13186e-20
7.85223e-23
3.63744e-25
7.15009e-28
2.08536e-28
0.461367
0.600477
0.171628
0.00160925
0.000108124
5.32486e-06
2.35083e-07
1.15015e-08
3.1545e-10
7.17407e-12
2.90587e-13
1.00858e-14
1.51251e-16
1.74873e-18
1.73888e-20
1.30778e-22
7.8146e-25
2.85631e-27
5.69026e-28
0.328575
0.579702
0.131105
0.00151959
7.16877e-05
5.4678e-06
3.83179e-07
2.27116e-08
5.72485e-10
1.19941e-11
5.83666e-13
1.97351e-14
3.11522e-16
2.91385e-18
2.09703e-20
9.73277e-23
5.77311e-25
2.3413e-27
7.70443e-28
0.258636
0.506652
0.0996519
0.00164671
0.000119444
1.21516e-05
9.44621e-07
5.47675e-08
1.32298e-09
2.4685e-11
5.39684e-13
4.9326e-14
1.30778e-15
1.09766e-17
5.92987e-20
8.84083e-23
5.25982e-25
2.1743e-27
7.70443e-28
0.274037
0.455569
0.0917313
0.000385005
0.000110635
3.66596e-05
3.57897e-06
1.43236e-07
3.01433e-09
2.72286e-11
2.89237e-13
1.17294e-13
5.58618e-15
4.36594e-17
2.07966e-19
4.57399e-22
2.38162e-24
8.46624e-27
1.2523e-27
0.211837
0.415732
0.103777
0.000541173
5.62493e-05
4.04178e-05
8.07999e-06
2.85714e-07
4.6002e-09
3.63742e-11
9.95408e-13
9.86178e-14
9.67313e-15
1.71128e-16
6.39241e-19
2.12173e-21
2.34997e-23
1.48597e-25
4.94675e-27
0.0145241
0.384332
0.304073
0.0150904
0.000202188
5.04683e-05
1.46098e-05
5.96494e-07
1.0935e-08
3.45918e-10
9.9976e-12
2.57906e-13
1.21593e-14
2.09275e-16
9.74531e-19
7.31726e-21
5.43988e-23
3.9126e-25
1.8901e-26
0.00138522
0.238403
0.304914
0.113291
0.00168576
0.000236442
2.54651e-05
1.69522e-06
8.17398e-08
3.08742e-09
9.29238e-11
2.29317e-12
4.78369e-14
8.89988e-16
9.60278e-18
7.52998e-20
4.02193e-22
1.19985e-24
1.20409e-25
0.00202204
0.0222415
0.195845
0.178886
0.0215055
0.000517864
5.77676e-05
4.18558e-06
2.19188e-07
8.68179e-09
2.68941e-10
6.62435e-12
1.42638e-13
4.80766e-15
5.9663e-17
3.88534e-19
1.93103e-21
5.80264e-24
1.06392e-24
0.00113684
0.0015345
0.0264247
0.0556275
0.0296198
0.00132745
4.80754e-05
3.59808e-06
2.03744e-07
8.6932e-09
2.87602e-10
7.88341e-12
2.27805e-13
9.12891e-15
1.29771e-16
1.24958e-18
8.99168e-21
4.12687e-23
7.83619e-25
0.000285877
0.00171331
0.00239858
0.00296267
0.00656208
0.00109582
4.42265e-05
3.35588e-06
2.067e-07
9.68777e-09
3.54842e-10
1.05506e-11
3.02515e-13
6.70842e-15
9.38054e-17
9.89786e-19
7.62013e-21
3.84172e-23
1.73452e-25
0.000139041
0.000549987
0.000453236
0.000588273
0.000216177
0.000138962
1.03972e-05
7.02952e-07
4.22089e-08
1.99455e-09
7.73906e-11
2.56945e-12
7.4899e-14
1.36396e-15
1.91547e-17
2.09283e-19
1.66736e-21
8.59846e-24
2.07447e-26
2.17127e-05
6.53162e-05
7.12794e-05
9.33982e-05
3.47934e-05
3.93749e-06
3.41966e-07
2.31226e-08
1.18752e-09
9.86965e-11
7.94491e-12
3.25277e-13
8.12832e-15
1.4672e-16
2.10818e-18
2.32525e-20
1.86524e-22
9.77191e-25
2.4479e-27
1.96487e-06
7.3501e-06
9.8809e-06
1.20941e-05
4.92762e-06
4.98498e-07
3.80379e-08
2.30294e-09
1.19121e-10
1.1549e-11
9.80479e-13
3.30668e-14
7.55307e-16
1.39646e-17
2.03813e-19
2.28027e-21
1.85504e-23
9.85393e-26
2.515e-28
1.523e-07
6.77893e-07
1.04643e-06
1.27956e-06
5.36247e-07
5.58971e-08
4.23717e-09
2.25463e-10
1.19397e-11
1.85946e-12
8.6453e-14
2.50508e-15
5.84367e-17
1.0943e-18
1.6158e-20
1.82953e-22
1.50649e-24
8.101e-27
2.09289e-29
9.80829e-09
5.40481e-08
9.27404e-08
1.13745e-07
4.921e-08
5.58274e-09
4.20542e-10
2.16515e-11
1.79341e-12
1.58919e-13
5.5924e-15
1.62994e-16
3.85513e-18
7.29258e-20
1.08742e-21
1.24417e-23
1.03553e-25
5.63013e-28
1.45571e-30
5.30148e-10
3.76098e-09
7.14447e-09
8.68747e-09
3.9235e-09
4.97797e-10
3.62549e-11
1.75493e-12
2.26294e-13
1.00139e-14
3.35426e-16
9.6044e-18
2.25378e-19
4.24833e-21
6.39549e-23
7.39265e-25
6.2157e-27
3.41551e-29
8.76182e-32
3.26953e-11
2.30945e-10
4.79991e-10
5.8003e-10
2.75296e-10
3.76815e-11
2.74369e-12
2.63458e-13
1.6202e-14
6.36873e-16
2.0733e-17
5.66418e-19
1.26607e-20
2.29967e-22
3.456e-24
3.99447e-26
3.36494e-28
1.85878e-30
4.69292e-33
3.17266e-12
1.46016e-11
2.84168e-11
3.45366e-11
1.8037e-11
2.62217e-12
2.52161e-13
2.0892e-14
9.69468e-16
3.8903e-17
1.24834e-18
3.33344e-20
7.27954e-22
1.29266e-23
1.88647e-25
2.1299e-27
1.76448e-29
9.67305e-32
2.40831e-34
1.91704e-13
1.33723e-12
2.55292e-12
2.04333e-12
1.10429e-12
1.59635e-13
1.78354e-14
1.14094e-15
5.64573e-17
2.2633e-18
7.2031e-20
1.90379e-21
4.11157e-23
7.21803e-25
1.03977e-26
1.16223e-28
9.56561e-31
5.24166e-33
1.28809e-35
6.59068e-15
7.25778e-14
2.00394e-13
1.90581e-13
7.04976e-14
9.88823e-15
9.51403e-16
6.1984e-17
3.12276e-18
1.25765e-19
3.99787e-21
1.05163e-22
2.25652e-24
3.9347e-26
5.63734e-28
6.27472e-30
5.15259e-32
2.83277e-34
6.85337e-37
1.99083e-16
2.78023e-15
9.0545e-15
1.01758e-14
3.7483e-15
4.93916e-16
4.73873e-17
3.19967e-18
1.64309e-19
6.68838e-21
2.13657e-22
5.62523e-24
1.20528e-25
2.09604e-27
2.99466e-29
3.32566e-31
2.72866e-33
1.50729e-35
3.58267e-38
5.94992e-18
9.71854e-17
3.43719e-16
3.99236e-16
1.65291e-16
2.2351e-17
2.25109e-18
1.5695e-19
8.25149e-21
3.4124e-22
1.10103e-23
2.91543e-25
6.26448e-27
1.09052e-28
1.55846e-30
1.73079e-32
1.4212e-34
7.8992e-37
1.84135e-39
1.57019e-19
3.09255e-18
1.22726e-17
1.47717e-17
6.79569e-18
9.66717e-19
1.01682e-19
7.34516e-21
3.96866e-22
1.67452e-23
5.48059e-25
1.46546e-26
3.1695e-28
5.54098e-30
7.94145e-32
8.83769e-34
7.27279e-36
4.07196e-38
9.29531e-41
3.63762e-21
8.95651e-20
4.05316e-19
5.12019e-19
2.64657e-19
3.982e-20
4.38537e-21
3.29267e-22
1.83426e-23
7.92451e-25
2.64039e-26
7.1541e-28
1.56233e-29
2.75047e-31
3.96229e-33
4.42622e-35
3.65469e-37
2.06305e-39
4.60662e-42
7.18006e-23
2.37315e-21
1.24278e-20
1.6608e-20
9.76074e-21
1.56714e-21
1.81313e-22
1.4191e-23
8.17368e-25
3.62666e-26
1.23389e-27
3.39754e-29
7.51174e-31
1.33484e-32
1.93655e-34
2.17471e-36
1.80341e-38
1.02694e-40
2.24138e-43
1.14934e-24
5.77802e-23
3.55452e-22
5.06446e-22
3.42095e-22
5.91241e-23
7.21358e-24
5.90083e-25
3.52308e-26
1.60961e-27
5.60634e-29
1.57268e-30
3.52822e-32
6.34094e-34
9.27938e-36
1.04884e-37
8.74222e-40
5.02298e-42
1.07125e-44
1.6777e-26
1.29869e-24
9.52483e-24
1.45866e-23
1.14377e-23
2.14518e-24
2.77177e-25
2.37523e-26
1.47358e-27
6.94825e-29
2.48304e-30
7.11088e-32
1.62182e-33
2.95275e-35
4.3646e-37
4.9704e-39
4.1667e-41
2.41554e-43
5.03398e-46
3.32874e-28
2.68707e-26
2.35021e-25
4.10034e-25
3.60151e-25
7.51033e-26
1.03186e-26
9.28756e-28
6.00053e-29
2.92603e-30
1.07489e-31
3.14809e-33
7.31109e-35
1.35029e-36
2.01828e-38
2.31763e-40
1.95494e-42
1.14325e-44
2.32887e-47
6.18921e-30
5.16138e-28
5.40191e-27
1.11921e-26
1.07948e-26
2.54611e-27
3.73468e-28
3.54009e-29
2.38682e-30
1.20584e-31
4.56101e-33
1.36817e-34
3.23968e-36
6.07652e-38
9.19257e-40
1.06512e-41
9.04318e-44
5.33261e-46
1.06244e-48
1.08142e-31
9.29467e-30
1.17697e-28
2.92721e-28
3.13312e-28
8.3905e-29
1.31908e-29
1.32013e-30
9.30622e-32
4.87892e-33
1.90281e-34
5.85334e-36
1.41469e-37
2.69721e-39
4.13267e-41
4.83402e-43
4.13198e-45
2.45552e-47
4.78884e-50
1.77723e-33
1.58262e-31
2.44005e-30
7.36631e-30
8.86268e-30
2.69923e-30
4.56467e-31
4.83458e-32
3.56961e-33
1.94474e-34
7.82964e-36
2.4724e-37
6.10441e-39
1.18385e-40
1.83815e-42
2.17136e-44
1.86879e-46
1.11843e-48
2.13731e-51
2.74418e-35
2.65436e-33
4.80346e-32
1.79683e-31
2.44668e-31
8.51126e-32
1.5546e-32
1.74613e-33
1.35232e-34
7.66495e-36
3.18859e-37
1.03437e-38
2.61058e-40
5.15236e-42
8.10982e-44
9.6768e-46
8.38587e-48
5.05016e-50
9.08928e-53
3.97286e-37
4.25129e-35
8.99853e-34
4.00733e-33
6.0789e-33
2.41311e-33
4.95051e-34
6.07447e-35
5.00847e-36
2.98528e-37
1.28914e-38
4.29934e-40
1.10985e-41
2.23027e-43
3.55991e-45
4.29176e-47
3.74518e-49
2.26783e-51
3.97021e-54
1.54195e-38
3.9725e-37
1.90622e-35
2.77785e-34
1.51415e-33
2.86264e-34
3.29616e-35
2.61931e-36
1.55488e-37
6.76894e-39
2.56038e-40
8.80844e-42
2.3328e-43
4.78613e-45
7.76636e-47
9.4813e-49
8.3493e-51
5.09412e-53
3.97021e-54
)
;

boundaryField
{
    leftWall
    {
        type            zeroGradient;
    }
    rightWall
    {
        type            zeroGradient;
    }
    lowerWall
    {
        type            zeroGradient;
    }
    atmosphere
    {
        type            inletOutlet;
        inletValue      uniform 0;
        value           nonuniform List<scalar> 
46
(
0
0
0
0
0
0
0
0
0
0
0
0
0
0
0
0
0
0
0
0
0
0
4.39338e-48
1.7772e-45
3.48517e-43
1.61604e-41
5.64657e-40
1.54195e-38
3.9725e-37
1.90622e-35
2.77785e-34
1.51415e-33
2.86264e-34
3.29616e-35
2.61931e-36
1.55488e-37
6.76894e-39
2.56038e-40
8.80844e-42
2.3328e-43
4.78613e-45
7.76636e-47
9.4813e-49
8.3493e-51
5.09412e-53
3.97021e-54
)
;
    }
    defaultFaces
    {
        type            empty;
    }
}


// ************************************************************************* //
