/*--------------------------------*- C++ -*----------------------------------*\
  =========                 |
  \\      /  F ield         | OpenFOAM: The Open Source CFD Toolbox
   \\    /   O peration     | Website:  https://openfoam.org
    \\  /    A nd           | Version:  13
     \\/     M anipulation  |
\*---------------------------------------------------------------------------*/
FoamFile
{
    format      ascii;
    class       surfaceScalarField;
    location    "0.2";
    object      alphaPhi.water;
}
// * * * * * * * * * * * * * * * * * * * * * * * * * * * * * * * * * * * * * //

dimensions      [0 3 -1 0 0 0 0];

internalField   nonuniform List<scalar> 
4432
(
2.12031e-06
-2.12031e-06
7.817e-06
-5.69669e-06
1.41731e-05
-6.35609e-06
2.00754e-05
-5.90227e-06
2.54933e-05
-5.41798e-06
3.06826e-05
-5.18924e-06
3.5859e-05
-5.17644e-06
4.11297e-05
-5.27067e-06
4.65058e-05
-5.37606e-06
5.19325e-05
-5.42673e-06
5.73081e-05
-5.37557e-06
6.24846e-05
-5.17659e-06
6.72571e-05
-4.7725e-06
7.13431e-05
-4.08595e-06
7.43192e-05
-2.97615e-06
7.53658e-05
-1.04652e-06
7.29399e-05
2.4259e-06
6.47847e-05
8.1552e-06
4.89822e-05
1.58024e-05
2.51732e-05
2.38089e-05
-1.94909e-06
2.71324e-05
-1.37729e-05
1.48984e-05
-1.54466e-05
2.16907e-06
-4.28938e-06
7.86688e-06
-1.13945e-05
1.42224e-05
-1.27116e-05
2.01315e-05
-1.18113e-05
2.55557e-05
-1.08423e-05
3.0758e-05
-1.03915e-05
3.59576e-05
-1.0376e-05
4.1258e-05
-1.05711e-05
4.66681e-05
-1.07862e-05
5.2135e-05
-1.08936e-05
5.7561e-05
-1.08016e-05
6.28027e-05
-1.04183e-05
6.76598e-05
-9.6296e-06
7.18538e-05
-8.27995e-06
7.5028e-05
-6.15032e-06
7.69679e-05
-2.98641e-06
7.77113e-05
1.68245e-06
7.70751e-05
8.79142e-06
7.28567e-05
2.00208e-05
6.08012e-05
3.58645e-05
3.85605e-05
4.9373e-05
1.36122e-05
4.01894e-05
-2.97259e-06
2.2319e-06
-6.52128e-06
7.91937e-06
-1.7082e-05
1.42252e-05
-1.90175e-05
2.00827e-05
-1.76688e-05
2.5472e-05
-1.62316e-05
3.06627e-05
-1.55822e-05
3.58717e-05
-1.5585e-05
4.11953e-05
-1.58947e-05
4.66386e-05
-1.62296e-05
5.21514e-05
-1.64063e-05
5.7642e-05
-1.62921e-05
6.29753e-05
-1.57516e-05
6.79618e-05
-1.46161e-05
7.23423e-05
-1.26604e-05
7.57795e-05
-9.58759e-06
7.78161e-05
-5.02294e-06
7.80082e-05
1.49027e-06
7.63066e-05
1.04931e-05
7.34034e-05
2.29241e-05
6.91111e-05
4.01567e-05
5.79589e-05
6.05252e-05
3.29045e-05
6.52439e-05
2.87251e-05
2.32422e-06
-8.84551e-06
8.00967e-06
-2.27674e-05
1.42437e-05
-2.52515e-05
2.00213e-05
-2.34464e-05
2.53616e-05
-2.15719e-05
3.05421e-05
-2.07627e-05
3.5771e-05
-2.08139e-05
4.11335e-05
-2.12573e-05
4.6631e-05
-2.1727e-05
5.22167e-05
-2.1992e-05
5.78079e-05
-2.18833e-05
6.32822e-05
-2.12259e-05
6.84663e-05
-1.98002e-05
7.31169e-05
-1.73111e-05
7.6902e-05
-1.33727e-05
7.93995e-05
-7.52034e-06
8.01073e-05
7.82377e-07
7.85487e-05
1.20518e-05
7.4692e-05
2.67807e-05
6.98574e-05
4.49913e-05
6.22183e-05
6.81643e-05
4.12204e-05
8.62418e-05
6.97825e-05
2.44692e-06
-1.12924e-05
8.13175e-06
-2.84522e-05
1.42686e-05
-3.13883e-05
1.99397e-05
-2.91175e-05
2.52189e-05
-2.6851e-05
3.03906e-05
-2.59344e-05
3.56475e-05
-2.60708e-05
4.10603e-05
-2.66701e-05
4.66264e-05
-2.72931e-05
5.23048e-05
-2.76704e-05
5.80246e-05
-2.76032e-05
6.3681e-05
-2.68823e-05
6.91215e-05
-2.52407e-05
7.4121e-05
-2.23106e-05
7.8358e-05
-1.76097e-05
8.14187e-05
-1.0581e-05
8.28416e-05
-6.40508e-07
8.21101e-05
1.27832e-05
7.86027e-05
3.02881e-05
7.21937e-05
5.14004e-05
6.32581e-05
7.70999e-05
4.39142e-05
0.000105586
0.000112727
2.60064e-06
-1.38931e-05
8.27709e-06
-3.41287e-05
1.42878e-05
-3.73991e-05
1.98286e-05
-3.46583e-05
2.50375e-05
-3.20599e-05
3.02013e-05
-3.10982e-05
3.54904e-05
-3.136e-05
4.09585e-05
-3.21381e-05
4.66e-05
-3.29346e-05
5.23824e-05
-3.34529e-05
5.82509e-05
-3.34716e-05
6.41229e-05
-3.27543e-05
6.987e-05
-3.09878e-05
7.52856e-05
-2.77262e-05
8.00631e-05
-2.23871e-05
8.38005e-05
-1.43185e-05
8.60441e-05
-2.88416e-06
8.62569e-05
1.25704e-05
8.37513e-05
3.27937e-05
7.72443e-05
5.79074e-05
6.63246e-05
8.80196e-05
4.64299e-05
0.00012548
0.000154127
2.78006e-06
-1.66731e-05
8.43164e-06
-3.97803e-05
1.4287e-05
-4.32544e-05
1.96793e-05
-4.00507e-05
2.48123e-05
-3.71929e-05
2.99681e-05
-3.6254e-05
3.52895e-05
-3.66814e-05
4.0812e-05
-3.76607e-05
4.65296e-05
-3.86521e-05
5.24211e-05
-3.93444e-05
5.84521e-05
-3.95026e-05
6.45661e-05
-3.88683e-05
7.06587e-05
-3.70804e-05
7.65438e-05
-3.36113e-05
8.19386e-05
-2.77819e-05
8.64719e-05
-1.88518e-05
8.96913e-05
-6.10366e-06
9.09994e-05
1.12624e-05
8.96983e-05
3.40947e-05
8.43012e-05
6.33045e-05
7.27774e-05
9.95434e-05
5.34973e-05
0.000144761
0.000204594
2.97289e-06
-1.9646e-05
8.57406e-06
-4.53814e-05
1.42542e-05
-4.89346e-05
1.94906e-05
-4.52872e-05
2.45455e-05
-4.22478e-05
2.96914e-05
-4.13999e-05
3.50409e-05
-4.20308e-05
4.06126e-05
-4.32324e-05
4.64026e-05
-4.44421e-05
5.24046e-05
-4.53464e-05
5.86086e-05
-4.57066e-05
6.49848e-05
-4.52445e-05
7.14529e-05
-4.35484e-05
7.78543e-05
-4.00128e-05
8.39377e-05
-3.38652e-05
8.93663e-05
-2.42803e-05
9.37171e-05
-1.04545e-05
9.63353e-05
8.64416e-06
9.6545e-05
3.38851e-05
9.29506e-05
6.68986e-05
8.21907e-05
0.000110303
6.10824e-05
0.000165869
0.000262631
9.6891e-25
-1.23139e-24
1.16154e-25
-1.95029e-25
2.10015e-26
-1.66556e-26
1.28005e-27
-7.93013e-27
1.92079e-29
-3.47043e-28
5.80387e-31
-8.12687e-30
3.61528e-32
-2.53345e-31
2.07674e-33
-9.01862e-33
8.01412e-35
-2.31763e-34
2.39306e-36
-2.77275e-36
6.01074e-38
2.45822e-38
1.23914e-39
1.68076e-39
2.0123e-41
5.46957e-41
2.50869e-43
1.19308e-42
2.26543e-45
1.98019e-44
1.36783e-47
2.29092e-46
4.42349e-50
1.84242e-48
1.12476e-50
7.71036e-51
2.2202e-51
-2.83745e-23
6.77693e-24
-7.52022e-24
-4.56162e-23
2.2816e-24
-2.05004e-23
2.81138e-25
-5.35234e-24
4.14123e-27
-1.66843e-25
1.2283e-28
-3.67316e-27
5.65337e-30
-8.29545e-29
2.503e-31
-1.97713e-30
8.88398e-33
-3.88711e-32
2.55685e-34
-4.08457e-34
6.13406e-36
9.23466e-36
1.20313e-37
6.17614e-37
1.86577e-39
1.91215e-38
2.21197e-41
4.03555e-40
1.88433e-43
6.27078e-42
1.03616e-45
6.84655e-44
2.89132e-48
4.92162e-46
8.35327e-51
1.75452e-48
7.0663e-51
-1.97382e-21
1.34836e-21
-4.62905e-22
-1.13271e-20
7.31419e-22
-2.10384e-20
4.11593e-23
-4.01531e-21
4.33605e-25
-6.14218e-23
1.11322e-26
-8.93013e-25
3.57966e-28
-1.29007e-26
1.13207e-29
-2.09002e-28
3.25121e-31
-3.01525e-30
8.15742e-33
-2.36722e-32
1.77227e-34
4.63959e-34
3.20437e-36
2.7523e-35
4.6031e-38
7.7721e-37
5.03091e-40
1.50978e-38
3.89721e-42
2.14869e-40
1.91342e-44
2.11806e-42
4.83222e-47
1.37139e-44
9.04775e-50
4.44274e-47
3.51664e-49
-1.3965e-19
1.0172e-19
-1.54277e-19
-1.58257e-18
9.45762e-20
-8.30932e-18
2.7486e-21
-5.0897e-19
2.4925e-23
-6.22195e-21
6.03133e-25
-7.53176e-23
1.7056e-26
-1.16545e-24
4.24249e-28
-1.56284e-26
9.74845e-30
-1.69074e-28
2.07882e-31
-9.95088e-31
3.98679e-33
1.6478e-32
6.50855e-35
8.35571e-34
8.5601e-37
2.1164e-35
8.63786e-39
3.75496e-37
6.37076e-41
4.94485e-39
3.02493e-43
4.70323e-41
7.49049e-46
2.85697e-43
2.12628e-48
1.02001e-45
1.21304e-47
-1.21623e-17
7.9379e-18
-9.90424e-18
-1.43843e-16
-4.0408e-20
-4.53092e-17
2.8317e-20
-3.91103e-18
5.17145e-22
-7.27308e-20
1.57879e-23
-1.17104e-21
5.46716e-25
-3.69323e-23
1.13587e-26
-5.69595e-25
2.20734e-28
-5.33713e-27
4.12318e-30
-2.44676e-29
7.06476e-32
4.20116e-31
1.06042e-33
1.83514e-32
1.33394e-35
4.27349e-34
1.33909e-37
7.32126e-36
9.97492e-40
9.52753e-38
4.75361e-42
9.09552e-40
1.11428e-44
5.51211e-42
3.76578e-47
1.71267e-44
2.88398e-46
-2.36638e-16
2.09428e-16
-7.31133e-17
-4.60784e-16
-1.52532e-18
-1.00214e-16
7.89538e-20
-6.6384e-18
3.42714e-21
-2.12986e-19
1.64354e-22
-6.56607e-21
7.50431e-24
-2.27026e-22
1.60381e-25
-6.15747e-24
3.13988e-27
-1.06125e-25
5.60714e-29
-3.11782e-28
8.96511e-31
6.767e-30
1.26505e-32
2.71223e-31
1.50862e-34
5.94187e-33
1.44379e-36
9.63823e-35
1.03569e-38
1.19688e-36
5.10567e-41
1.10578e-38
1.53462e-43
7.30862e-41
6.22966e-46
3.37332e-43
5.23519e-45
-7.28376e-16
1.2427e-15
-3.09675e-16
0
-2.0945e-17
-1.02671e-16
1.96805e-19
-4.17066e-18
1.22015e-20
-1.41128e-18
9.44064e-22
-5.10718e-20
2.95494e-23
-1.05193e-21
9.33803e-25
-1.29953e-23
2.76937e-26
-2.29454e-25
5.64623e-28
-3.95407e-27
8.8601e-30
7.52779e-29
1.18348e-31
2.95256e-30
1.3313e-33
6.26028e-32
1.20436e-35
9.69586e-34
8.27168e-38
1.13845e-35
4.07551e-40
1.00872e-37
1.40906e-42
6.7365e-40
7.71341e-45
3.4966e-42
7.38012e-44
-6.53748e-15
7.87153e-15
-9.89061e-15
0
-1.97647e-15
-1.61709e-14
-6.80986e-18
-3.09913e-15
1.56815e-19
-3.36843e-17
1.42795e-20
0
2.53545e-21
0
4.44606e-24
-1.67663e-21
1.26929e-25
0
8.09108e-27
-1.76205e-28
8.86633e-29
7.41298e-28
1.20883e-30
3.16839e-29
1.30226e-32
6.9025e-31
1.11025e-34
1.05575e-32
6.71594e-37
1.16495e-34
2.73003e-39
9.15289e-37
6.81468e-42
4.95767e-39
6.19559e-44
1.81891e-41
7.76773e-43
6.84314e-06
-2.64891e-05
1.86925e-05
-5.72308e-05
3.01126e-05
-6.03546e-05
4.06717e-05
-5.58463e-05
5.11664e-05
-5.27425e-05
6.20691e-05
-5.23026e-05
7.35046e-05
-5.34663e-05
8.54794e-05
-5.52072e-05
9.80113e-05
-5.6974e-05
0.000111153
-5.84886e-05
0.000124981
-5.95337e-05
0.000139526
-5.97903e-05
0.000154743
-5.87652e-05
0.000170443
-5.57124e-05
0.00018617
-4.9592e-05
0.000201196
-3.93067e-05
0.000214666
-2.39246e-05
0.000225113
-1.80284e-06
0.00023144
2.75582e-05
0.00023083
6.75088e-05
0.000221432
0.000119701
0.000211955
0.000175346
0.000258287
0.000219678
7.6227e-06
-3.41118e-05
1.90694e-05
-6.86775e-05
2.96053e-05
-7.08906e-05
3.94823e-05
-6.57232e-05
4.96516e-05
-6.29118e-05
6.04613e-05
-6.31123e-05
7.19132e-05
-6.49182e-05
8.39873e-05
-6.72814e-05
9.67597e-05
-6.97463e-05
0.000110399
-7.21283e-05
0.00012512
-7.42544e-05
0.000141125
-7.57958e-05
0.000158661
-7.63009e-05
0.000177811
-7.48625e-05
0.000198161
-6.99412e-05
0.000218919
-6.00668e-05
0.00023917
-4.41751e-05
0.000257416
-2.00497e-05
0.00027316
1.17453e-05
0.000283901
5.67676e-05
0.000292503
0.000111098
0.000302174
0.000165675
0.000234176
0.000326283
8.34623e-06
-4.24581e-05
1.92096e-05
-7.95408e-05
2.8752e-05
-8.0433e-05
3.7959e-05
-7.49303e-05
4.78e-05
-7.27527e-05
5.84254e-05
-7.37377e-05
6.97359e-05
-7.62287e-05
8.17211e-05
-7.92666e-05
9.4549e-05
-8.25742e-05
0.000108509
-8.60883e-05
0.000123938
-8.96831e-05
0.000141242
-9.30998e-05
0.000161077
-9.61358e-05
0.000183865
-9.76506e-05
0.000209213
-9.52834e-05
0.000236194
-8.70845e-05
0.000264446
-7.24342e-05
0.000291499
-4.7109e-05
0.000318197
-1.61275e-05
0.000336457
3.85003e-05
0.000342064
0.00010549
0.000344542
0.000163196
0.000216212
0.000362495
8.93235e-06
-5.13904e-05
1.90307e-05
-8.96391e-05
2.75615e-05
-8.89637e-05
3.61483e-05
-8.35171e-05
4.56293e-05
-8.22337e-05
5.59362e-05
-8.40446e-05
6.69143e-05
-8.72068e-05
7.85946e-05
-9.09469e-05
9.12371e-05
-9.52167e-05
0.000105156
-0.000100007
0.000120712
-0.00010524
0.000138424
-0.000110811
0.000159575
-0.000117286
0.000185099
-0.000123155
0.000213899
-0.00012418
0.000243111
-0.00011628
0.000272068
-0.000101811
0.000258665
-3.86522e-05
0.000218216
-8.29144e-06
0.000165592
3.80625e-06
0.000187603
8.32007e-06
0.000255023
2.42751e-05
9.39189e-05
0.000310652
9.34009e-06
-6.07305e-05
1.85148e-05
-9.88138e-05
2.60719e-05
-9.65209e-05
3.40884e-05
-9.15337e-05
4.31429e-05
-9.12882e-05
5.29715e-05
-9.38732e-05
6.34005e-05
-9.76357e-05
7.44951e-05
-0.000102041
8.64838e-05
-0.000107205
9.94955e-05
-0.000113018
0.000113761
-0.000119503
0.000129929
-0.000126974
0.000150728
-0.000138081
0.000176559
-0.000148928
0.00019731
-0.000144856
0.000159963
-6.71232e-05
7.47239e-05
-1.75493e-05
1.06672e-05
-3.51651e-06
2.73583e-06
-3.18533e-07
4.07442e-06
1.98605e-08
8.90008e-06
7.47631e-07
2.41552e-05
2.29071e-06
5.95746e-06
8.158e-05
9.56896e-06
-7.02994e-05
1.76932e-05
-0.000106938
2.43499e-05
-0.000103177
3.18241e-05
-9.90077e-05
4.03371e-05
-9.9801e-05
4.94649e-05
-0.000103001
5.90049e-05
-0.000107175
6.89764e-05
-0.000112012
7.93691e-05
-0.000117595
9.01126e-05
-0.000123755
0.000101371
-0.000130744
0.000114812
-0.000140376
0.000134323
-0.000157362
0.000139781
-0.00014551
5.88569e-05
-3.38042e-05
2.04485e-05
-5.5331e-06
3.75713e-06
-8.323e-07
3.83681e-07
-1.33562e-07
8.18033e-08
-1.2872e-08
1.01858e-07
-2.91249e-10
8.01285e-07
4.15166e-08
2.85321e-06
2.96375e-07
1.07517e-06
7.17928e-06
9.64879e-06
-7.99481e-05
1.65748e-05
-0.000113862
2.237e-05
-0.000108971
2.92384e-05
-0.000105874
3.69535e-05
-0.000107514
4.49624e-05
-0.000111006
5.30175e-05
-0.000115225
6.10266e-05
-0.000120007
6.88876e-05
-0.000125419
7.69456e-05
-0.000131733
8.57912e-05
-0.000139324
9.66562e-05
-0.000149348
8.35979e-05
-9.70788e-05
3.71657e-05
-1.96385e-05
5.96431e-06
-2.17183e-06
9.14068e-07
-4.82356e-07
1.45024e-07
-8.26332e-08
1.68187e-08
-1.13454e-08
3.94542e-09
-8.05858e-10
3.18874e-09
-3.69132e-11
4.35133e-08
9.55028e-10
3.1567e-07
2.34508e-08
1.3283e-07
1.10312e-06
9.52708e-06
-8.94719e-05
1.50217e-05
-0.000119337
1.98589e-05
-0.00011379
2.58794e-05
-0.000111873
3.23441e-05
-0.000113947
3.86808e-05
-0.000117296
4.47792e-05
-0.000121254
5.07027e-05
-0.000125765
5.70689e-05
-0.000131383
6.4892e-05
-0.000135514
6.30731e-05
-9.89376e-05
3.51377e-05
-2.56551e-05
2.1088e-05
-4.13372e-06
2.24111e-06
-5.69394e-07
2.8772e-07
-1.74391e-07
5.87179e-08
-2.73678e-07
1.02862e-08
-3.97479e-08
1.68854e-09
-3.98124e-09
5.3139e-10
-1.98625e-10
1.99591e-10
-3.57218e-11
1.06421e-09
-6.84855e-12
2.30916e-08
1.24381e-09
1.3169e-08
1.47462e-07
9.29788e-06
-9.87183e-05
1.28546e-05
-0.000122673
1.64457e-05
-0.000117171
2.13652e-05
-0.000116532
2.64089e-05
-0.000118621
3.13225e-05
-0.000121681
3.66209e-05
-0.000122873
4.05495e-05
-0.000103287
3.92355e-05
-7.00191e-05
2.6181e-05
-1.49995e-05
2.40407e-05
-2.16393e-06
4.69443e-06
-3.35183e-07
6.39781e-07
-5.22844e-08
8.74697e-08
-7.34267e-09
1.6433e-07
-1.72627e-07
2.22304e-07
-7.05799e-07
1.78838e-08
-1.38234e-07
6.59246e-10
-3.73783e-09
1.95999e-10
-6.6147e-11
1.04552e-10
-4.03666e-11
4.78069e-11
-1.78109e-11
1.21356e-09
0
2.95396e-10
1.44077e-08
9.50332e-06
-9.78371e-05
9.87347e-06
-8.77708e-05
1.21953e-05
-8.3627e-05
1.56857e-05
-7.5156e-05
1.84715e-05
-6.2037e-05
1.96564e-05
-4.60254e-05
1.77896e-05
-1.57837e-05
1.15245e-05
-1.22488e-06
1.47043e-05
-1.32496e-07
2.49014e-06
-1.74792e-08
3.52428e-07
-2.65509e-09
6.09451e-08
-1.40505e-08
1.3548e-08
-7.09037e-09
8.37849e-09
-3.40388e-09
2.39556e-07
-3.00331e-07
4.80389e-07
-6.98172e-07
4.56024e-08
-2.51268e-07
6.93111e-10
-1.23451e-09
1.41478e-10
6.7688e-11
4.59204e-11
-1.59453e-11
1.78119e-10
-1.24959e-11
1.26834e-09
-4.36618e-11
1.21661e-11
2.1903e-09
5.01195e-06
1.58424e-24
3.03193e-06
-8.59617e-24
4.19301e-06
-4.85222e-22
4.29941e-06
-5.69825e-20
3.57146e-06
-4.91174e-18
4.21996e-06
-3.0058e-16
1.37246e-06
-2.98342e-15
1.48011e-07
-3.48282e-14
1.7628e-08
-2.84756e-12
1.90213e-09
-9.05099e-11
2.56826e-09
-2.53345e-09
5.32246e-09
-1.51303e-08
6.71799e-09
-8.79555e-09
4.97513e-09
-3.42439e-09
3.01677e-07
-2.67298e-07
4.35014e-07
-5.86651e-07
6.55955e-08
-3.05383e-07
3.29326e-10
2.10082e-09
7.66578e-11
9.20374e-11
8.23749e-12
-3.20857e-12
1.18975e-10
-4.95248e-12
5.2925e-10
-6.27113e-12
-1.45559e-11
1.10122e-09
-1.84855e-25
1.70583e-23
1.78316e-25
-7.52338e-25
1.49867e-23
-1.38011e-22
2.49821e-21
-1.71007e-20
2.9466e-19
-1.54709e-18
2.19071e-17
-1.02168e-16
2.83218e-16
-9.70493e-16
4.45196e-15
-3.28204e-14
3.56826e-13
-3.11225e-12
4.51478e-11
-1.3465e-10
2.97885e-09
-5.46447e-09
1.52884e-08
-2.6567e-08
1.94431e-08
-1.56967e-08
1.94307e-08
-4.7408e-09
2.54011e-07
-1.87512e-07
3.67457e-07
-4.57841e-07
3.81716e-08
-2.17453e-07
0
2.82972e-09
3.54843e-12
3.28465e-11
0
-1.19555e-13
2.26285e-12
-5.39132e-13
2.39269e-12
-2.43765e-12
-2.77392e-12
1.32286e-09
-9.44319e-25
2.23627e-23
1.2206e-24
-2.92833e-24
4.92421e-23
-2.17819e-22
6.30349e-21
-2.58292e-20
5.62419e-19
-2.34818e-18
6.67471e-17
-2.01561e-16
1.74399e-15
-2.7203e-15
1.42091e-13
-1.74978e-13
1.0094e-11
-1.36611e-11
5.34933e-10
-6.40285e-10
3.26194e-08
-3.80081e-08
8.02395e-08
-1.82953e-07
6.48478e-08
-1.45857e-07
6.1846e-08
-4.5324e-09
1.72912e-07
-1.00107e-07
2.7468e-07
-3.22768e-07
3.31494e-09
-3.93536e-08
0
2.63423e-09
2.13245e-14
8.5796e-12
1.54717e-14
-1.88053e-14
4.65645e-14
-1.1452e-13
2.52432e-12
-1.63062e-12
-6.22267e-11
6.59404e-11
-1.15976e-24
1.51323e-23
3.36692e-24
-9.80152e-24
3.01674e-22
-2.24921e-21
4.47376e-20
-2.53343e-19
4.64459e-18
-2.07813e-17
3.25665e-16
-1.44854e-15
1.52637e-14
-1.79386e-14
7.6184e-13
-9.22907e-13
5.60185e-11
-6.91407e-11
3.03493e-09
-3.66551e-09
4.66428e-08
-2.03134e-07
7.00987e-08
-2.00499e-07
6.29442e-08
-1.30226e-07
4.45664e-08
-2.96439e-09
9.26737e-08
-5.54459e-08
9.70824e-08
-9.57394e-08
-2.49603e-09
1.57504e-08
-8.63508e-12
1.45299e-10
-1.59394e-13
1.43668e-13
-9.58491e-15
-1.28973e-14
0
-1.53045e-13
0
-5.19489e-12
-9.07312e-11
1.09013e-10
-6.93216e-25
3.95167e-24
6.64449e-24
-9.85937e-23
1.47939e-21
-1.51534e-20
1.88202e-19
-1.39946e-18
1.37938e-17
-7.49945e-17
6.85151e-16
-2.62005e-15
5.78626e-14
-7.82673e-14
4.45677e-12
-5.34175e-12
2.00467e-10
-2.70965e-10
3.25321e-09
-1.10676e-08
3.42884e-09
-1.8735e-07
-6.91423e-09
-1.78865e-07
-1.11804e-09
-1.30696e-07
3.76616e-09
-1.85848e-08
-8.44241e-09
-5.07688e-08
-1.47431e-08
6.05826e-12
-1.39565e-10
1.15603e-09
-2.31084e-13
6.0519e-12
-5.96118e-14
3.86747e-15
-3.39855e-14
-1.79491e-14
0
-4.39949e-13
0
-9.15269e-12
-1.36779e-10
0
-1.08325e-25
-2.08683e-24
1.28511e-23
-4.2817e-22
2.489e-21
-6.22081e-20
2.48727e-19
-5.60884e-18
1.03622e-17
-2.50181e-16
2.41484e-16
-3.83187e-15
-1.46183e-15
-3.80686e-14
0
-1.71562e-12
-1.7608e-10
-6.06304e-11
-6.73658e-09
-1.00122e-09
-4.78303e-08
-4.74594e-08
-7.03817e-08
-1.40354e-07
-5.40878e-08
-1.25517e-07
-6.03583e-08
-1.97452e-08
-9.85765e-08
-2.92062e-09
-1.13553e-09
3.26397e-09
-6.10248e-12
2.99297e-11
-8.62303e-14
1.12458e-13
-8.01282e-14
-5.8032e-16
-3.8374e-14
-3.24181e-14
0
-6.23516e-13
0
-9.35388e-12
-1.16582e-10
0
1.2498e-26
-4.31279e-24
-1.51574e-24
-7.8379e-22
-2.1228e-21
-1.16718e-19
-1.00794e-18
-1.21831e-17
-1.17121e-16
-7.01026e-16
-2.83903e-16
-7.54209e-15
-1.73071e-14
-1.76376e-14
-1.33632e-12
-3.08831e-14
-6.53474e-11
-3.8083e-13
-1.05867e-09
-2.55888e-12
-4.19327e-08
-8.86291e-12
-4.8629e-08
-2.08753e-11
-1.44874e-08
-3.07808e-11
-4.39444e-10
-6.74223e-11
-3.26307e-09
-3.413e-11
-2.97493e-11
4.8651e-11
-1.69927e-13
4.2441e-13
-3.90384e-14
-2.39584e-17
-5.48377e-14
-1.77583e-15
-4.65532e-14
-3.19809e-14
0
-4.91434e-13
-1.78535e-13
-6.39273e-12
-6.99018e-11
-2.88282e-11
-1.10751e-25
-5.6793e-24
-5.90361e-23
-7.12142e-22
-1.7278e-20
-1.02355e-19
-7.03982e-18
-1.27046e-17
-5.14094e-16
-8.96737e-16
-2.44883e-15
-8.35979e-15
-3.34135e-15
-1.45203e-14
-1.53074e-14
-1.2337e-14
-2.45583e-13
-1.02393e-13
-6.75951e-13
-6.51828e-13
-2.69966e-12
-4.39622e-12
-7.1113e-12
-1.596e-11
-2.03588e-11
-1.71303e-11
-8.12226e-11
-8.95158e-12
-4.95677e-11
-6.05915e-12
-4.69587e-13
-1.04767e-16
-1.67014e-14
-3.23354e-16
-1.37568e-14
-2.17515e-16
-1.20321e-14
-1.48208e-15
-5.32902e-14
-1.53068e-14
-5.76573e-13
-1.90603e-13
-7.07372e-12
-2.14499e-12
-1.99157e-11
-7.74625e-11
-2.33443e-25
-2.99468e-24
-8.92735e-23
-4.6663e-22
-2.41445e-20
-5.87178e-20
-1.26491e-17
-5.3167e-18
-8.82886e-16
-4.07733e-16
-2.91377e-15
-3.93475e-15
-2.82236e-15
-7.92692e-15
-8.16385e-15
-6.47294e-15
-5.694e-14
-5.83302e-14
-2.12708e-13
-4.39227e-13
-6.46498e-12
-8.05568e-12
-1.79126e-11
-2.50042e-11
-2.76959e-11
-1.82715e-11
-6.51413e-12
-8.41079e-12
-1.19497e-16
-1.74415e-16
-2.28118e-16
-1.70207e-18
-5.77398e-16
-8.88695e-18
-1.88936e-15
-5.37245e-17
-8.2605e-15
-3.82705e-16
-3.60622e-14
-2.99249e-15
-3.55436e-13
-2.97858e-14
-3.65941e-12
-3.28945e-13
-2.58858e-12
-3.38308e-11
-1.55102e-24
-6.12918e-25
-2.95765e-22
-1.34269e-22
-4.38609e-20
-1.47759e-20
-4.23143e-18
-1.45077e-18
-2.32784e-16
-2.00811e-17
-1.13882e-15
-5.14136e-17
-1.44952e-15
-2.05422e-16
-2.59013e-15
-3.4228e-15
-3.65187e-14
-2.0094e-14
-5.75737e-13
-4.94407e-14
-2.61481e-11
-5.6248e-14
-2.75959e-11
-1.94008e-14
-2.1625e-11
-1.68617e-13
-2.35824e-15
-5.04004e-15
-2.40339e-17
-2.51418e-15
-2.574e-17
-4.83001e-19
-3.69145e-17
-1.48396e-18
-3.10091e-16
-5.82747e-18
-2.01249e-15
-4.13378e-17
-9.1627e-15
-3.18583e-16
-6.02626e-14
-2.65052e-15
-5.43501e-13
-2.7255e-14
-2.10702e-13
-4.55861e-12
-4.97625e-25
-1.50661e-27
-1.25309e-22
-2.42194e-25
-1.50953e-20
-2.10097e-23
-7.84831e-19
-1.2612e-21
-2.95063e-18
-5.77059e-20
-8.7973e-18
-1.95128e-18
-1.81878e-16
-4.88389e-17
-5.16046e-15
-1.5898e-15
-1.60876e-14
-1.48968e-14
-1.70231e-14
-3.24062e-14
-1.88396e-14
-4.43035e-14
-1.84681e-14
-3.42572e-14
-6.24832e-16
-1.19967e-14
-5.64799e-15
-1.85614e-17
-8.9384e-19
-1.49298e-18
-1.15186e-18
-7.60774e-20
-4.08464e-18
-1.92981e-19
-2.45321e-17
-6.63737e-19
-2.0865e-16
-3.84267e-18
-1.53305e-15
-2.7597e-17
-8.57517e-15
-1.9899e-16
-5.76204e-14
-1.39568e-15
-5.15014e-15
-3.85048e-13
-1.18435e-27
-2.95992e-28
-2.34432e-25
-6.88227e-26
-1.63458e-23
-5.03169e-24
-1.04897e-21
-2.23775e-22
-4.87393e-20
-1.00749e-20
-1.65288e-18
-3.70017e-19
-4.59129e-17
-1.2665e-17
-2.38071e-15
-1.42385e-16
-1.76718e-14
-2.82759e-16
-2.25138e-14
-4.09197e-16
-1.82138e-14
-2.78777e-16
-5.65253e-15
-1.64601e-16
-6.39049e-18
-4.35092e-17
-3.86219e-18
-2.25952e-17
-1.32654e-19
-6.83912e-18
-1.69164e-19
-3.67145e-20
-4.68728e-19
-3.96008e-20
-2.21204e-18
-9.26741e-20
-1.66564e-17
-2.67454e-19
-1.5012e-16
-1.62176e-18
-1.34903e-15
-1.06515e-17
-1.28987e-14
-4.87662e-17
2.26398e-16
-8.39807e-14
-2.11769e-28
-4.25716e-29
-4.29413e-26
-1.43925e-26
-3.08778e-24
-1.19011e-24
-1.81094e-22
-4.68814e-23
-8.19239e-21
-2.0788e-21
-3.60668e-19
-7.17708e-20
-1.54648e-17
-2.58415e-18
-1.13706e-16
-5.95942e-17
-1.62056e-16
-2.33388e-16
-2.06897e-16
-3.90653e-16
-1.27681e-16
-3.79041e-16
-5.79564e-17
-3.03288e-16
-4.11343e-17
-7.39854e-17
-1.98311e-17
-1.28635e-17
-6.68635e-20
-6.66065e-19
-6.33649e-20
-1.79597e-20
-9.31114e-20
-5.85487e-21
-2.18931e-19
-8.45549e-21
-1.01435e-18
-1.5868e-20
-9.01388e-18
-7.41184e-20
-8.69288e-17
-4.5017e-19
-1.23805e-15
-1.11405e-18
4.46543e-17
-1.33961e-14
-3.93934e-29
-1.52125e-30
-1.38678e-26
-5.45035e-28
-1.1678e-24
-4.9629e-26
-3.57289e-23
-1.8998e-24
-1.64223e-21
-8.55636e-23
-6.5708e-20
-3.00563e-21
-3.12519e-18
-9.24146e-20
-7.06345e-17
-3.47249e-18
-2.33875e-16
-5.23923e-17
-2.83521e-16
-2.03126e-16
-2.7002e-16
-2.11632e-16
-1.59885e-16
-2.48386e-16
-3.11911e-17
-1.08816e-16
-2.11675e-18
-2.05593e-17
-5.85818e-20
-1.44922e-18
-1.58479e-20
-5.59837e-20
-1.44978e-20
-6.52614e-21
-1.65448e-20
-3.78441e-22
-5.14034e-20
-4.85803e-22
-4.23741e-19
-2.74168e-21
-4.21508e-18
-1.57978e-20
-5.91264e-17
-5.12992e-21
2.78199e-18
-1.0094e-15
-1.48368e-30
-1.82798e-33
-5.46958e-28
-6.68619e-31
-5.03624e-26
-6.33028e-29
-2.10982e-24
-3.77161e-27
-9.4891e-23
-1.75365e-25
-2.90151e-21
-4.61889e-24
-9.69257e-20
-1.44093e-22
-3.72617e-18
-4.42834e-21
-4.52983e-17
-1.45496e-19
-1.57975e-16
-1.13902e-18
-1.72913e-16
-2.6931e-18
-1.54292e-16
-3.08943e-18
-4.623e-17
-1.93202e-18
-4.27605e-18
-8.12891e-19
-2.39046e-19
-3.70674e-19
-3.02883e-20
-7.90792e-20
-8.45016e-22
-9.73606e-21
-6.63787e-22
-1.389e-22
-1.64355e-21
-1.35419e-23
-1.59058e-20
-8.45519e-23
-1.6783e-19
-4.78961e-22
-2.54362e-18
9.57081e-22
1.24977e-19
-5.0383e-17
-1.37541e-33
-8.90488e-36
-6.6425e-31
-3.42958e-33
-6.3486e-29
-3.50006e-31
-3.78012e-27
-2.24709e-29
-1.76611e-25
-1.11713e-27
-4.51691e-24
-3.23528e-26
-1.47928e-22
-9.52387e-25
-5.45115e-21
-3.14166e-23
-1.55214e-19
-9.83221e-22
-8.1561e-19
-7.54753e-21
-1.35914e-18
-2.03756e-20
-1.26033e-18
-2.93927e-20
-6.83123e-19
-3.03132e-20
-4.08795e-19
-2.70761e-20
-2.17697e-19
-2.47772e-20
-4.0833e-20
-2.07883e-20
-5.46541e-22
-5.78562e-21
-2.86392e-23
-6.25974e-23
-4.66744e-23
-1.25637e-24
-4.95828e-22
-2.1348e-24
-5.63318e-21
-1.29022e-23
-9.41541e-20
5.15924e-23
4.49278e-21
-2.03032e-18
-9.24008e-36
-4.77644e-39
-3.44756e-33
-1.35434e-36
-3.57799e-31
-1.50496e-34
-2.28027e-29
-1.06516e-32
-1.12975e-27
-5.73464e-31
-3.25236e-26
-2.38369e-29
-7.39811e-25
-5.32244e-28
-3.72979e-23
-1.51815e-26
-9.23107e-22
-4.82008e-25
-5.12655e-21
-1.4842e-23
-1.13517e-20
-1.29461e-22
-1.54023e-20
-3.78806e-22
-1.65741e-20
-5.42724e-22
-1.83197e-20
-5.27304e-22
-1.97661e-20
-2.72125e-22
-1.26016e-20
-9.02878e-23
-2.21463e-22
-3.18399e-23
-3.07961e-24
-4.11123e-24
-2.59333e-24
-1.33895e-25
-1.28163e-23
-4.67549e-26
-1.60945e-22
-3.15495e-25
-3.06223e-21
1.7177e-24
1.36723e-22
-6.99169e-20
-4.64616e-39
-5.04763e-42
-1.35726e-36
-1.2829e-39
-1.51944e-34
-1.55271e-37
-1.08775e-32
-1.24369e-35
-5.85143e-31
-7.44766e-34
-2.45313e-29
-3.50258e-32
-6.11254e-28
-1.36622e-30
-1.57652e-26
-2.47929e-29
-5.86407e-25
-7.46851e-28
-1.6715e-23
-2.97077e-26
-1.08403e-22
-4.15269e-25
-2.4934e-22
-1.68537e-24
-3.09524e-22
-2.84451e-24
-2.5277e-22
-2.93051e-24
-1.08417e-22
-1.53204e-24
-5.05182e-23
-2.00616e-25
-1.02495e-23
-1.77243e-26
-3.83796e-25
-6.69646e-27
-1.39915e-25
-1.76986e-27
-2.84083e-25
-9.76833e-28
-4.02878e-24
-6.91399e-27
-9.1475e-23
4.41574e-26
3.70174e-24
-2.12622e-21
-5.04161e-42
-6.19251e-46
-1.28704e-39
-1.68588e-43
-1.56446e-37
-2.20217e-41
-1.26041e-35
-1.90899e-39
-7.58202e-34
-1.2367e-37
-3.58455e-32
-6.31541e-36
-1.40609e-30
-2.68611e-34
-2.61852e-29
-5.40731e-33
-8.04681e-28
-1.62793e-31
-3.78756e-26
-5.67517e-30
-4.00895e-25
-1.71086e-28
-1.18955e-24
-1.54694e-27
-1.63579e-24
-4.6336e-27
-1.40694e-24
-6.57423e-27
-2.87486e-25
-6.16574e-27
-2.66517e-26
-2.37801e-27
-1.21172e-26
-2.50297e-28
-4.05314e-27
-1.42347e-30
-1.90285e-27
-2.14505e-30
-5.59695e-27
-1.94486e-29
-8.68185e-26
-1.34041e-28
-2.53365e-24
8.8119e-28
8.81105e-26
-5.9396e-23
-6.21484e-46
-6.44255e-50
-1.68984e-43
-1.88474e-47
-2.21835e-41
-2.69376e-45
-1.93182e-39
-2.55825e-43
-1.25711e-37
-1.81664e-41
-6.48926e-36
-1.02846e-39
-2.75949e-34
-4.83192e-38
-4.36159e-33
-1.01349e-36
-1.68772e-31
-3.33436e-35
-7.16827e-30
-1.01307e-33
-2.10546e-28
-3.59893e-32
-1.42545e-27
-1.03137e-30
-3.30368e-27
-9.00723e-30
-3.91777e-27
-2.4671e-29
-2.77467e-27
-3.06348e-29
-4.50502e-28
-2.42817e-29
-1.89214e-30
-4.48476e-30
-1.73938e-30
-2.45024e-32
-6.56376e-30
-2.84527e-32
-9.86897e-29
-2.95567e-31
-1.57608e-27
-2.25869e-30
-7.23876e-26
1.37297e-29
1.77925e-27
-1.52667e-24
-6.44685e-50
-1.19798e-53
-1.89119e-47
-3.85552e-51
-2.71271e-45
-6.06104e-49
-2.58562e-43
-6.33255e-47
-1.84278e-41
-4.9497e-45
-1.04776e-39
-3.08913e-43
-4.94146e-38
-1.60132e-41
-1.17287e-36
-7.09305e-40
-2.68686e-35
-1.43823e-38
-1.05571e-33
-4.65558e-37
-4.93912e-32
-1.60734e-35
-1.45174e-30
-6.37385e-34
-9.28932e-30
-8.83201e-33
-1.8414e-29
-3.41196e-32
-1.90113e-29
-5.10754e-32
-7.19702e-30
-4.54498e-32
-3.43386e-32
-1.15341e-32
-2.41816e-32
-2.64306e-34
-8.43233e-32
-2.35218e-34
-1.40284e-30
-3.48558e-33
-2.41169e-29
-3.31973e-32
-1.34093e-27
1.68208e-31
3.08828e-29
-3.39986e-26
-1.19856e-53
-7.41223e-59
-3.867e-51
-2.65096e-56
-6.09929e-49
-4.63048e-54
-6.39427e-47
-5.37621e-52
-5.01517e-45
-4.67172e-50
-3.14104e-43
-3.24388e-48
-1.6374e-41
-1.87653e-46
-7.2765e-40
-9.28722e-45
-1.71236e-38
-4.02945e-43
-4.82671e-37
-8.07145e-42
-1.93261e-35
-2.71648e-40
-9.68787e-34
-8.93877e-39
-1.02759e-32
-3.72463e-37
-2.79235e-32
-7.7739e-36
-3.09092e-32
-4.43656e-35
-1.63369e-32
-8.42007e-35
-4.25e-34
-8.19107e-35
-1.83241e-34
-2.7072e-35
-7.07904e-34
-2.24841e-36
-1.60954e-32
-3.81798e-35
-3.17798e-31
-4.25185e-34
-1.83856e-29
1.63083e-33
4.66552e-31
-6.60493e-28
-7.41133e-59
-1.53146e-62
-2.658e-56
-6.15273e-60
-4.65638e-54
-1.20663e-57
-5.42193e-52
-1.57292e-55
-4.72515e-50
-1.53507e-53
-3.29056e-48
-1.19772e-51
-1.90909e-46
-7.79065e-50
-9.47889e-45
-4.34236e-48
-4.12624e-43
-2.12481e-46
-6.74946e-42
-4.77605e-45
-2.80699e-40
-1.80185e-43
-9.30646e-39
-6.46894e-42
-6.38839e-37
-2.81293e-40
-1.17278e-35
-9.01453e-39
-4.64473e-35
-7.87893e-38
-6.40049e-35
-1.93406e-37
-4.35939e-35
-2.09178e-37
-3.08643e-36
-9.10976e-38
-6.27317e-36
-1.88742e-38
-1.6172e-34
-3.58744e-37
-3.59426e-33
-4.70283e-36
-2.15549e-31
1.09157e-35
6.16684e-33
-1.12438e-29
-1.5315e-62
-5.7065e-67
-6.16822e-60
-2.60841e-64
-1.21284e-57
-5.81921e-62
-1.58512e-55
-8.62969e-60
-1.551e-53
-9.5839e-58
-1.2133e-51
-8.51293e-56
-7.91261e-50
-6.30734e-54
-4.42345e-48
-4.0101e-52
-2.17015e-46
-2.23787e-50
-5.78952e-45
-1.1122e-48
-1.85959e-43
-2.6313e-47
-6.74728e-42
-1.04159e-45
-4.56155e-40
-4.43888e-44
-1.50326e-38
-2.1038e-42
-8.95912e-38
-3.1323e-41
-1.49164e-37
-1.10216e-40
-1.14332e-37
-1.39241e-40
-2.35304e-38
-9.51378e-41
-4.73029e-38
-1.40802e-40
-1.36258e-36
-2.8692e-39
-3.47804e-35
-4.47454e-38
-2.17221e-33
2.52264e-38
7.17554e-35
-1.67793e-31
-5.70681e-67
-1.63159e-72
-2.61427e-64
-8.63592e-70
-5.84575e-62
-2.22972e-67
-8.68881e-60
-3.82616e-65
-9.67161e-58
-4.91774e-63
-8.61047e-56
-5.05701e-61
-6.39413e-54
-4.33953e-59
-4.07833e-52
-3.20024e-57
-2.28093e-50
-2.07281e-55
-1.13594e-48
-1.19587e-53
-2.17748e-47
-3.21087e-52
-9.19081e-46
-1.47976e-50
-6.00128e-44
-6.34901e-49
-3.82212e-42
-2.71812e-47
-4.01979e-41
-1.48367e-45
-8.94901e-41
-3.78556e-44
-8.43136e-41
-2.14194e-43
-5.51376e-41
-3.87638e-43
-3.03827e-40
-1.05218e-42
-9.58217e-39
-1.93829e-41
-2.86681e-37
-3.63787e-40
-1.88541e-35
-5.0363e-40
7.38479e-37
-2.19854e-33
-1.63155e-72
-9.17224e-77
-8.65201e-70
-5.77469e-74
-2.23831e-67
-1.76709e-71
-3.84844e-65
-3.58958e-69
-4.95608e-63
-5.4599e-67
-5.10641e-61
-6.64441e-65
-4.39046e-59
-6.7491e-63
-3.24405e-57
-5.89361e-61
-2.10532e-55
-4.52242e-59
-1.21704e-53
-3.09218e-57
-3.96612e-52
-1.91707e-55
-1.85697e-50
-9.432e-54
-6.52464e-49
-2.89774e-52
-2.94872e-47
-1.41202e-50
-3.04085e-45
-8.59061e-49
-6.03015e-44
-3.65632e-47
-1.80534e-43
-3.42945e-46
-3.05484e-43
-9.02659e-46
-1.76398e-42
-4.31645e-45
-5.64435e-41
-1.0833e-43
-1.99576e-39
-2.48215e-42
-1.40438e-37
-8.79674e-42
6.75201e-39
-2.52787e-35
-9.17371e-77
-1.03775e-81
-5.78488e-74
-8.14008e-79
-1.77322e-71
-3.0648e-76
-3.60811e-69
-7.63067e-74
-5.49735e-67
-1.42058e-71
-6.70127e-65
-2.11455e-69
-6.81829e-63
-2.6265e-67
-5.96398e-61
-2.8046e-65
-4.58399e-59
-2.63199e-63
-3.14315e-57
-2.20734e-61
-1.95139e-55
-1.67567e-59
-9.38006e-54
-1.16623e-57
-2.99154e-52
-3.90266e-56
-1.46502e-50
-2.25191e-54
-1.56422e-48
-1.38386e-52
-5.94307e-47
-1.00719e-50
-2.78909e-46
-2.16083e-49
-6.41089e-46
-1.25269e-48
-6.58841e-45
-1.42048e-47
-2.69561e-43
-4.79667e-46
-1.14469e-41
-1.36905e-44
-8.33593e-40