/*--------------------------------*- C++ -*----------------------------------*\
  =========                 |
  \\      /  F ield         | OpenFOAM: The Open Source CFD Toolbox
   \\    /   O peration     | Website:  https://openfoam.org
    \\  /    A nd           | Version:  13
     \\/     M anipulation  |
\*---------------------------------------------------------------------------*/
FoamFile
{
    format      ascii;
    class       volScalarField;
    location    "0.2";
    object      p;
}
// * * * * * * * * * * * * * * * * * * * * * * * * * * * * * * * * * * * * * //

dimensions      [1 -1 -2 0 0 0 0];

internalField   nonuniform List<scalar> 
2268
(
2111.88
2119.79
2122.67
2121.68
2118.73
2115.47
2112.56
2110.21
2108.62
2108.16
2109.54
2113.96
2123.33
2140.47
2169.31
2215.73
2285.97
2383.69
2507.02
2638.29
2741.43
2770.35
2816.23
2051.67
2059.48
2062.29
2061.25
2058.28
2054.99
2052.03
2049.57
2047.84
2047.19
2048.32
2052.42
2061.39
2077.96
2105.91
2149.49
2213.64
2304.28
2422.63
2556.54
2670.34
2703.97
2770.96
1990.1
1997.75
2000.4
1999.24
1996.24
1992.89
1989.8
1987.15
1985.12
1984.08
1984.71
1988.18
1996.33
2011.8
2038.17
2079.71
2141.24
2225.86
2333.5
2455.68
2577.48
2657.04
2765.39
1927.2
1934.61
1937.02
1935.69
1932.62
1929.18
1925.91
1922.95
1920.48
1918.84
1918.71
1921.21
1928.13
1941.99
1966.22
2004.96
2062.63
2141.84
2242.06
2355.04
2476.65
2591.17
2733.68
1863
1870.12
1872.2
1870.65
1867.46
1863.9
1860.37
1856.98
1853.9
1851.45
1850.29
1851.5
1856.74
1868.44
1889.84
1924.97
1977.96
2051.33
2145.12
2252.6
2370.25
2491.71
2646.16
1797.54
1804.34
1806.01
1804.15
1800.83
1797.08
1793.2
1789.25
1785.38
1781.9
1779.42
1778.96
1782.06
1790.98
1808.8
1839.41
1886.88
1953.67
2040.23
2141.36
2250.76
2359.77
2485.31
1730.89
1737.32
1738.46
1736.24
1732.74
1728.77
1724.44
1719.79
1714.95
1710.22
1706.14
1703.65
1704.13
1709.62
1723.02
1748.06
1788.75
1847.7
1925.51
2017.13
2111.75
2192.44
2232.96
1663.12
1669.07
1669.54
1666.9
1663.22
1658.97
1654.11
1648.63
1642.65
1636.47
1630.55
1625.71
1623.15
1624.69
1632.91
1651.29
1683.77
1732.92
1799.75
1877.87
1949.87
1992.33
1860.2
11.6256
11.606
11.5871
11.5676
11.5456
11.5201
11.4895
11.4535
11.4128
11.3686
11.3229
11.2774
11.234
11.1942
11.1593
11.1302
11.1079
11.0927
11.085
11.57
11.5473
11.5283
11.5091
11.4874
11.4621
11.4316
11.3955
11.3545
11.31
11.2639
11.2182
11.1745
11.1345
11.0994
11.0702
11.0477
11.0324
11.0248
11.5155
11.4893
11.4697
11.4511
11.4297
11.4049
11.3746
11.3383
11.2968
11.2517
11.205
11.1585
11.1143
11.0738
11.0383
11.0088
10.9862
10.9708
10.9631
11.466
11.4316
11.4109
11.3933
11.3727
11.3487
11.3187
11.2821
11.2398
11.1937
11.1459
11.0985
11.0534
11.0122
10.9761
10.9463
10.9233
10.9077
10.8999
11.4202
11.3734
11.3515
11.336
11.3163
11.2935
11.2638
11.2268
11.1835
11.136
11.0868
11.038
10.9918
10.9496
10.9128
10.8824
10.859
10.8432
10.8352
11.3805
11.3137
11.2922
11.278
11.2605
11.2394
11.2102
11.1726
11.1279
11.0786
11.0276
10.9771
10.9294
10.886
10.8483
10.8172
10.7933
10.7772
10.7691
11.3483
11.2489
11.2319
11.2197
11.2052
11.1866
11.1581
11.1196
11.0731
11.0216
10.9682
10.9157
10.8662
10.8214
10.7826
10.7506
10.7262
10.7097
10.7014
11.3285
11.1747
11.1707
11.1615
11.1509
11.1354
11.1077
11.068
11.0192
10.9649
10.9087
10.8537
10.8021
10.7556
10.7155
10.6826
10.6576
10.6407
10.6322
1555.41
1560.43
1559.89
1556.55
1552.42
1547.57
1541.66
1534.6
1526.53
1517.65
1508.33
1499.11
1490.92
1485.1
1483.66
1489.75
1507.32
1537.66
1583.38
1632.57
1651.41
1581.8
1013.98
1404.37
1408.05
1406.04
1401.58
1396.41
1390.09
1381.99
1371.95
1359.97
1346.06
1330.26
1312.66
1293.4
1272.57
1251.01
1232.03
1222.2
1223.3
1227.03
1229.44
1202.01
1094.98
790.923
1249.67
1251.79
1248.05
1242.31
1235.76
1227.41
1216.46
1202.61
1185.7
1165.43
1141.42
1112.93
1078.84
1037.22
986.295
927.244
870.248
815.72
779.498
727.774
674.946
648.041
593.728
1092.04
1092.45
1086.94
1079.8
1071.49
1060.56
1046.08
1027.66
1004.81
976.824
942.852
900.908
849.208
782.056
689.247
565.855
422.971
237.695
75.6513
52.5925
56.391
96.2185
167.204
932.309
930.94
923.734
915.081
904.67
890.688
872.169
848.518
818.869
782.252
737.22
681.336
612.473
512.804
361.1
183.627
61.1597
14.2585
2.00983
-0.449224
1.39503
4.61715
10.7372
771.187
767.968
759.257
749.042
736.285
718.997
696.205
667.067
630.536
585.297
529.583
459.874
367.822
229.478
77.2568
15.8952
2.06114
-0.269194
-0.812796
-1.21933
-1.32089
-1.66032
-2.23301
609.734
604.497
594.602
582.958
567.94
547.545
520.765
486.61
443.998
389.598
321.497
232.002
125.493
30.8891
4.67587
0.751571
-0.511532
-1.11142
-1.40367
-1.73661
-2.19156
-2.80598
-3.47947
449.83
442.835
432.27
419.263
402.268
379.218
348.64
309.34
260.181
194.852
118.279
40.8274
7.95857
0.641209
0.695252
-0.237025
-1.04142
-1.49598
-1.80298
-2.18749
-2.72878
-3.37431
-3.98013
291.468
283.086
272.099
257.054
237.87
212.491
178.538
134.978
89.8401
38.8136
12.4787
0.141303
-0.0967296
0.320044
0.325017
-0.487791
-1.5003
-1.90053
-2.12182
-2.44052
-2.94636
-3.54194
-4.05262
136.128
123.707
114.078
100.556
84.3983
65.7949
42.9396
21.6729
7.98016
0.90602
0.210461
0.213083
0.0473249
0.0584465
0.0542686
-0.81438
-1.95015
-2.18291
-2.32361
-2.59681
-3.03128
-3.51499
-3.93322
29.6832
18.1961
17.4761
13.9467
9.20058
4.26406
1.84811
1.49612
1.10661
0.779356
0.298362
-0.0699226
-0.305408
-0.313719
-0.310878
-1.17448
-2.18972
-2.35571
-2.4396
-2.67323
-3.04156
-3.45701
-3.86199
1.83933
1.8402
1.79448
1.71973
1.61476
1.48585
1.44249
1.28414
0.984469
0.575418
0.0687876
-0.448151
-0.837252
-0.887781
-0.856258
-1.45239
-2.30902
-2.43308
-2.46922
-2.67738
-3.00936
-3.40999
-3.85606
1.71116
1.70726
1.66707
1.6062
1.52557
1.42477
1.31517
1.14041
0.837084
0.38171
-0.235581
-0.943437
-1.52058
-1.60571
-1.47111
-1.77649
-2.35075
-2.3902
-2.41943
-2.61468
-2.92867
-3.34066
-3.85395
1.57681
1.5674
1.53533
1.48346
1.41427
1.32414
1.20217
1.01564
0.696539
0.213559
-0.522187
-1.4598
-2.14098
-2.17667
-1.99045
-2.12731
-2.31714
-2.24896
-2.30894
-2.49297
-2.79381
-3.21594
-3.78605
1.45025
1.4316
1.40659
1.36335
1.30225
1.21862
1.09946
0.915954
0.598904
0.111947
-0.629633
-1.67432
-2.35506
-2.34358
-2.21672
-2.23056
-2.15051
-2.07865
-2.14767
-2.32136
-2.60208
-3.00804
-3.60037
1.33445
1.31419
1.29162
1.25264
1.19699
1.11929
1.00991
0.842241
0.553201
0.099891
-0.564382
-1.4226
-2.05243
-2.1509
-2.10146
-2.01351
-1.89901
-1.86319
-1.94416
-2.10664
-2.35849
-2.72449
-3.26224
1.22768
1.20988
1.18863
1.15252
1.10107
1.0296
0.931224
0.785097
0.542849
0.168122
-0.338699
-0.927019
-1.41508
-1.66391
-1.70656
-1.63192
-1.58281
-1.61444
-1.70011
-1.84829
-2.05978
-2.35897
-2.79004
1.13109
1.11781
1.0965
1.06295
1.01517
0.949771
0.861928
0.737949
0.547476
0.263064
-0.10815
-0.515023
-0.868449
-1.10491
-1.19768
-1.21579
-1.25673
-1.32409
-1.42594
-1.55143
-1.71064
-1.92189
-2.21026
1.04572
1.03497
1.01462
0.983271
0.938972
0.87911
0.800419
0.695302
0.547623
0.34024
0.0753408
-0.210342
-0.465877
-0.660049
-0.787919
-0.879543
-0.967996
-1.05234
-1.13935
-1.23142
-1.33189
-1.44791
-1.58124
0.970007
0.96056
0.941631
0.912503
0.871657
0.817052
0.746264
0.655114
0.535912
0.380902
0.192172
-0.0125015
-0.209281
-0.377908
-0.51162
-0.619828
-0.710895
-0.786523
-0.851953
-0.907199
-0.951547
-0.982445
-0.986606
0.902192
0.89366
0.876257
0.849487
0.812264
0.763026
0.699884
0.620299
0.520654
0.39795
0.254184
0.0992576
-0.0523951
-0.188637
-0.304965
-0.401928
-0.479225
-0.537169
-0.577385
-0.597295
-0.593111
-0.556751
-0.470466
0.84079
0.833049
0.817236
0.792983
0.759578
0.715926
0.6607
0.592338
0.509147
0.410367
0.29835
0.179561
0.0627181
-0.0445827
-0.138127
-0.215373
-0.273531
-0.311089
-0.326437
-0.315568
-0.273121
-0.189325
-0.0477932
0.784558
0.777595
0.763428
0.741808
0.712317
0.674287
0.626922
0.56937
0.50097
0.421918
0.334349
0.242828
0.153256
0.0709478
-0.000159519
-0.0565607
-0.094874
-0.112366
-0.105723
-0.0703489
-0.000381404
0.113421
0.282818
0.732491
0.726331
0.713844
0.694901
0.669298
0.636715
0.596777
0.549143
0.493707
0.431032
0.363035
0.293199
0.225796
0.164881
0.114052
0.0768609
0.0568134
0.0571851
0.0817087
0.135042
0.22292
0.353811
0.532376
0.68377
0.678437
0.667626
0.651323
0.629481
0.602042
0.568938
0.53018
0.486013
0.437165
0.385278
0.333036
0.283747
0.240789
0.207407
0.186837
0.182373
0.197394
0.235534
0.30092
0.397965
0.531352
0.711894
0.637705
0.633188
0.624011
0.610245
0.591961
0.56928
0.542348
0.511418
0.476936
0.439693
0.401111
0.363317
0.328947
0.300847
0.281907
0.275068
0.283304
0.309709
0.357537
0.430208
0.531299
0.664774
0.836403
0.593676
0.589931
0.582313
0.570936
0.555955
0.537595
0.516141
0.492003
0.465739
0.438163
0.410529
0.384573
0.362427
0.346477
0.33925
0.343363
0.36142
0.396065
0.450065
0.526242
0.627346
0.756204
0.915828
0.551109
0.548079
0.541919
0.532758
0.520799
0.506314
0.489666
0.471358
0.452006
0.432427
0.41374
0.397384
0.385102
0.378892
0.380915
0.393417
0.418644
0.458801
0.516116
0.59285
0.691045
0.812497
0.958758
0.509501
0.507121
0.502302
0.495167
0.485937
0.474891
0.462429
0.449083
0.435485
0.422437
0.410957
0.402261
0.397782
0.399179
0.408263
0.426909
0.45699
0.500345
0.558747
0.633882
0.727174
0.839766
0.97233
0.468427
0.466628
0.463019
0.457706
0.450906
0.442882
0.434038
0.424887
0.416044
0.408276
0.402504
0.399779
0.401301
0.408433
0.42266
0.445522
0.47855
0.523228
0.580952
0.652954
0.740184
0.843264
0.962393
0.427552
0.426265
0.423727
0.42002
0.415341
0.409936
0.404182
0.398548
0.393607
0.390068
0.38875
0.390567
0.396539
0.407791
0.425528
0.450986
0.485395
0.529934
0.585667
0.65347
0.733931
0.827349
0.933671
0.386626
0.385787
0.38417
0.381847
0.378979
0.375799
0.372639
0.369911
0.368134
0.367937
0.370032
0.375211
0.384343
0.39836
0.418233
0.444949
0.479476
0.522722
0.575484
0.638373
0.711747
0.795693
0.889949
0.345454
0.345002
0.344156
0.34299
0.341632
0.340295
0.339262
0.338889
0.339629
0.342018
0.346662
0.354237
0.365478
0.381152
0.402039
0.428921
0.462555
0.50363
0.552722
0.610251
0.676423
0.751201
0.834167
0.303877
0.303741
0.303525
0.303295
0.30316
0.30331
0.303973
0.305455
0.30814
0.312466
0.318936
0.328115
0.340616
0.357059
0.378068
0.404257
0.436212
0.474449
0.519377
0.571268
0.630231
0.696249
0.7686
0.261765
0.261879
0.262162
0.262665
0.26349
0.264792
0.266759
0.269647
0.273765
0.279465
0.28715
0.297283
0.310354
0.32686
0.34729
0.372121
0.401802
0.436711
0.477126
0.523206
0.574951
0.632134
0.69495
0.21905
0.219357
0.22002
0.221078
0.222623
0.224777
0.227692
0.231577
0.236674
0.243254
0.251633
0.262173
0.275255
0.291259
0.310561
0.333527
0.360489
0.391719
0.427403
0.467624
0.512357
0.561443
0.614881
0.175693
0.176145
0.177088
0.178549
0.180607
0.183352
0.18691
0.191436
0.197113
0.204145
0.21277
0.223256
0.235882
0.250929
0.268675
0.289388
0.313305
0.340612
0.371427
0.405787
0.443656
0.484916
0.529461
0.131654
0.132198
0.133341
0.135075
0.137478
0.140607
0.144556
0.149433
0.155363
0.162493
0.17099
0.181037
0.192825
0.206548
0.222399
0.240562
0.261191
0.284403
0.310263
0.338777
0.369903
0.403553
0.439611
0.0868329
0.0874104
0.0886851
0.0905931
0.0932058
0.0965563
0.100702
0.105704
0.111637
0.118594
0.126674
0.135986
0.146644
0.158764
0.172465
0.187854
0.205019
0.224016
0.244868
0.26756
0.292049
0.318272
0.346148
0.0408389
0.041409
0.0427557
0.0447634
0.0474906
0.0509469
0.0551512
0.0601227
0.0658908
0.0724931
0.0799687
0.0883576
0.0977032
0.108052
0.119452
0.131941
0.145545
0.160273
0.176109
0.19302
0.210961
0.229897
0.249801
-0.00580022
-0.00528387
-0.00393682
-0.00190017
0.000858772
0.00432048
0.00846644
0.0132765
0.0187351
0.0248273
0.0315349
0.0388373
0.0467151
0.05515
0.0641232
0.0736116
0.0835851
0.0940068
0.104832
0.116002
0.12746
0.139188
0.151221
-0.0485249
-0.0482963
-0.0470269
-0.0450436
-0.0423716
-0.0390667
-0.0351827
-0.0307774
-0.025911
-0.0206474
-0.0150567
-0.0092132
-0.00319267
0.00292869
0.00907514
0.0151719
0.0211459
0.0269274
0.0324507
0.037645
0.042441
0.0468154
0.0509118
-37.365
0.546068
6.60601
9.80273
307.716
68.0303
-42.0268
-16.5608
416.629
250.721
158.497
93.3302
168.617
135.032
106.175
100.244
18.4452
24.0355
25.5182
14.376
-2.43151
-2.83004
-2.47693
-16.8239
-3.73131
-3.81369
-3.29291
-2.16886
-4.21549
-4.28881
-4.46861
-3.50904
-4.27344
-4.39613
-4.71401
-4.73437
-4.18685
-4.35291
-4.64712
-4.91852
-4.19112
-4.41604
-4.69626
-4.9979
-4.26438
-4.54742
-4.8364
-5.14951
-4.3424
-4.66799
-4.95399
-5.20801
-4.36979
-4.73978
-5.04881
-5.2816
-4.19523
-4.57174
-4.95053
-5.43603
-3.8067
-4.15739
-4.47301
-4.88112
-3.23254
-3.54773
-3.8795
-4.31544
-2.48736
-2.691
-2.94619
-3.29845
-1.67353
-1.72407
-1.79337
-1.91919
-0.944837
-0.893007
-0.828452
-0.765859
-0.349904
-0.246479
-0.120311
0.0244252
0.113905
0.241535
0.391433
0.562167
0.459916
0.593211
0.74537
0.915266
0.70869
0.837471
0.981195
1.13868
0.879789
0.999439
1.1304
1.27159
0.991185
1.09962
1.21654
1.34101
1.05603
1.15294
1.2562
1.36505
1.08439
1.17031
1.26102
1.35592
1.08411
1.15992
1.2394
1.32206
1.06133
1.12801
1.19755
1.26954
1.02087
1.07935
1.1401
1.20276
0.966463
1.01759
1.07051
1.12494
0.900953
0.945431
0.991336
1.03844
0.826487
0.864925
0.90449
0.944994
0.744703
0.777623
0.811411
0.845923
0.656998
0.684788
0.713241
0.742248
0.564394
0.587383
0.61087
0.634775
0.467736
0.4862
0.505025
0.524157
0.367763
0.381919
0.396324
0.410943
0.265121
0.275129
0.285294
0.295595
0.160381
0.166347
0.172393
0.178512
0.0539647
0.0559448
0.0579463
0.0599666
11.3179
11.0243
11.0767
11.0695
11.0673
11.0582
11.0319
10.9898
10.9363
10.8766
10.8153
10.7558
10.7004
10.651
10.6086
10.5741
10.5479
10.5303
10.5215
11.4315
11.1805
10.9451
10.9212
10.9543
10.9645
10.9407
10.8918
10.8281
10.7577
10.6867
10.6189
10.5571
10.5027
10.4566
10.4194
10.3914
10.3727
10.3633
7.47371
11.2511
10.5927
10.683
10.8453
10.8941
10.8681
10.8051
10.7248
10.639
10.555
10.477
10.4073
10.3472
10.297
10.257
10.227
10.2071
10.1972
13.502
6.87057
9.93022
10.4681
10.8014
10.8722
10.823
10.7313
10.6251
10.5182
10.4178
10.3277
10.2494
10.1832
10.1288
10.0859
10.054
10.033
10.0225
-7.7909
4.75713
10.3023
10.5456
10.901
10.9157
10.8078
10.6679
10.525
10.3909
10.2714
10.1683
10.0811
10.009
9.95069
9.90523
9.87179
9.84981
9.83892
-52.5002
-20.6964
10.0983
10.9419
11.0541
11.0057
10.813
10.6043
10.4156
10.2503
10.1107
9.99485
9.89983
9.82283
9.76154
9.71423
9.67969
9.65709
9.64591
-61.4775
-57.8355
8.65576
11.5295
11.3622
11.1324
10.8183
10.5266
10.2833
10.0866
9.929
9.80329
9.70295
9.62311
9.56031
9.51223
9.47728
9.45447
9.44322
-14.2571
-83.6729
8.05407
12.395
11.8899
11.2876
10.7982
10.4016
10.1078
9.88706
9.71928
9.58975
9.48842
9.40871
9.34641
9.29885
9.26433
9.24182
9.23072
-4.14416
-85.1409
8.3272
13.5008
12.2541
11.3284
10.6498
10.1813
9.86463
9.64038
9.47619
9.35191
9.25531
9.17932
9.11975
9.07411
9.0409
9.0192
9.00848
-4.90929
-66.6928
7.90993
13.4186
11.9112
11.0095
10.284
9.82527
9.5373
9.34111
9.19881
9.09026
9.00446
8.93571
8.88096
8.83852
8.80737
8.7869
8.77676
-5.3792
-48.8321
6.6877
11.6923
10.7638
10.1721
9.64509
9.32115
9.12903
8.99554
8.89294
8.80915
8.73885
8.67988
8.6314
8.593
8.56441
8.54547
8.53604
-5.50292
-33.2386
7.10913
9.45996
9.01772
8.78023
8.75278
8.69843
8.66859
8.6243
8.5718
8.5167
8.46337
8.4148
8.3729
8.33873
8.31285
8.29552
8.28686
-5.13611
-23.2956
4.55706
5.91563
6.7372
7.00802
7.73901
8.07682
8.21849
8.26067
8.25367
8.22298
8.1836
8.14363
8.10731
8.07689
8.0535
8.03771
8.02979
-5.02066
-2.77351
-5.13052
2.75659
4.80501
5.61652
6.84185
7.59569
7.85727
7.94073
7.95541
7.93613
7.90365
7.8686
7.83602
7.80843
7.7871
7.77266
7.76541
-6.32076
-5.81369
-10.232
8.62133
5.80962
5.53422
6.6676
7.41106
7.63504
7.6845
7.68365
7.65838
7.62455
7.59041
7.55959
7.53389
7.51418
7.50092
7.49428
-6.46884
-7.01176
-9.03362
8.57297
8.41575
7.08892
7.23412
7.48026
7.50751
7.46938
7.4272
7.38421
7.34374
7.30799
7.27775
7.25341
7.23512
7.22295
7.2169
-5.43746
-6.89708
-6.96074
3.47457
7.5766
8.02267
7.69144
7.50613
7.3587
7.24326
7.16289
7.10307
7.05631
7.01916
6.98971
6.96691
6.95018
6.93922
6.93381
-4.0264
-4.94614
-3.02194
3.08969
7.66832
8.18494
7.69076
7.33211
7.11126
6.96646
6.87123
6.80549
6.75777
6.72198
6.69481
6.67439
6.65973
6.65024
6.6456
-2.11198
-1.77466
0.269273
4.08258
6.8362
7.40964
7.17315
6.92161
6.74789
6.62759
6.54516
6.48761
6.44624
6.41575
6.39302
6.37624
6.36434
6.35671
6.35301
-0.579017
0.276495
1.92077
4.16356
5.81493
6.36747
6.4394
6.38397
6.30878
6.24238
6.19065
6.15191
6.12304
6.10142
6.08524
6.07331
6.06489
6.05951
6.05691
0.350451
1.20879
2.48376
3.92931
4.99763
5.53708
5.76195
5.833
5.84576
5.83571
5.81996
5.80472
5.79176
5.78128
5.7731
5.76693
5.76253
5.75971
5.75835
0.911977
1.65195
2.60892
3.61724
4.40684
4.89716
5.17304
5.31814
5.39165
5.42776
5.44511
5.45326
5.45688
5.45826
5.45869
5.45871
5.4586
5.45849
5.45844
1.24467
1.86233
2.59115
3.32994
3.94359
4.37969
4.66686
4.84831
4.96117
5.03127
5.07532
5.10383
5.12276
5.13535
5.14422
5.15037
5.15451
5.15709
5.15836
1.43297
1.9437
2.51415
3.08096
3.57213
3.95344
4.23093
4.42559
4.55997
4.65237
4.71631
4.76115
4.79313
4.81506
4.83172
4.84352
4.85163
4.8567
4.85926
1.52882
1.95221
2.4093
2.85997
3.26241
3.59354
3.85146
4.04561
4.18903
4.29419
4.37121
4.42783
4.46962
4.5003
4.5231
4.53965
4.55117
4.55842
4.56219
1.56379
1.91736
2.29091
2.65836
2.9938
3.28112
3.51599
3.70195
3.84626
3.95701
4.0415
4.10583
4.15471
4.19167
4.21944
4.23984
4.25417
4.26323
4.26798
1.55743
1.8551
2.16529
2.47042
2.75358
3.0032
3.21459
3.3884
3.52841
3.63966
3.72727
3.79584
3.84918
3.89033
3.92168
3.94495
3.96142
3.9719
3.97732
1.52208
1.7746
2.03535
2.29215
2.53341
2.75066
2.93959
3.09947
3.23204
3.34032
3.42778
3.49777
3.55328
3.59681
3.63038
3.65554
3.67348
3.68497
3.69083
1.46581
1.68136
1.90259
2.12079
2.32774
2.51709
2.68512
2.83054
2.9539
3.05691
3.14184
3.21106
3.26686
3.31122
3.34581
3.37197
3.39074
3.40282
3.40892
1.39408
1.57894
1.76784
1.95445
2.13273
2.29787
2.44672
2.57782
2.69108
2.78736
2.86808
2.9349
2.9895
3.03341
3.068
3.09436
3.11338
3.12568
3.13183
1.31072
1.46967
1.63161
1.79178
1.94569
2.08961
2.22094
2.33822
2.44103
2.52971
2.6051
2.66832
2.72058
2.76304
2.79676
2.82264
2.84141
2.8536
2.85965
1.21841
1.35517
1.49417
1.63181
1.76466
1.88981
2.00512
2.10924
2.2016
2.28222
2.35156
2.41034
2.4594
2.49961
2.53179
2.55663
2.57473
2.58653
2.59234
1.1191
1.23655
1.3557
1.47379
1.58817
1.69656
1.79718
1.88886
1.97097
2.04334
2.10619
2.15996
2.20521
2.24258
2.27267
2.29602
2.31311
2.32428
2.32974
1.01421
1.11461
1.21631
1.31716
1.41513
1.50839
1.59551
1.67545
1.74761
1.81173
1.86786
1.91624
1.95725
1.99133
2.01892
2.04043
2.05622
2.06657
2.0716
0.904785
0.989922
1.07605
1.16151
1.2447
1.3242
1.39881
1.46769
1.53024
1.58621
1.63551
1.67829
1.71476
1.74523
1.77001
1.78941
1.80369
1.81307
1.8176
0.79165
0.862944
0.93499
1.0065
1.07624
1.14307
1.20605
1.26445
1.31777
1.36573
1.40821
1.44526
1.47701
1.50365
1.52539
1.54247
1.55507
1.56338
1.56735
0.67544
0.73402
0.793164
0.851885
0.909224
0.964301
1.01636
1.06482
1.10925
1.14938
1.18509
1.21636
1.24327
1.26593
1.28449
1.2991
1.30991
1.31704
1.32042
0.556668
0.603431
0.650604
0.697446
0.743231
0.787286
0.829033
0.868002
0.903848
0.936342
0.965358
0.990857
1.01287
1.03145
1.04672
1.05876
1.06769
1.0736
1.07635
0.435758
0.471402
0.507329
0.543004
0.577898
0.61152
0.643438
0.673302
0.700842
0.725874
0.748288
0.768038
0.785127
0.799594
0.811499
0.820912
0.827899
0.832535
0.834652
0.313059
0.338112
0.363343
0.388395
0.41291
0.436554
0.459033
0.480099
0.499564
0.517291
0.533197
0.547239
0.559413
0.569739
0.57825
0.584991
0.589999
0.593335
0.594807
0.18887
0.203712
0.21865
0.233479
0.247994
0.262004
0.275335
0.287844
0.299417
0.309971
0.319454
0.327838
0.335117
0.341299
0.346402
0.350448
0.353456
0.355478
0.356308
0.0633799
0.0682637
0.073173
0.0780445
0.0828136
0.0874189
0.0918049
0.0959248
0.0997411
0.103226
0.106362
0.109139
0.111553
0.113606
0.115304
0.116651
0.117651
0.118333
0.11859
)
;

boundaryField
{
    leftWall
    {
        type            calculated;
        value           nonuniform List<scalar> 
50
(
2111.88
2051.67
1990.1
1927.2
1863
1797.54
1730.89
1663.12
1555.41
1404.37
1249.67
1092.04
932.309
771.187
609.734
449.83
291.468
136.128
29.6832
1.83933
1.71116
1.57681
1.45025
1.33445
1.22768
1.13109
1.04572
0.970007
0.902192
0.84079
0.784558
0.732491
0.68377
0.637705
0.593676
0.551109
0.509501
0.468427
0.427552
0.386626
0.345454
0.303877
0.261765
0.21905
0.175693
0.131654
0.0868329
0.0408389
-0.00580022
-0.0485249
)
;
    }
    rightWall
    {
        type            calculated;
        value           nonuniform List<scalar> 
50
(
11.085
11.0248
10.9631
10.8999
10.8352
10.7691
10.7014
10.6322
10.5215
10.3633
10.1972
10.0225
9.83892
9.64591
9.44322
9.23072
9.00848
8.77676
8.53604
8.28686
8.02979
7.76541
7.49428
7.2169
6.93381
6.6456
6.35301
6.05691
5.75835
5.45844
5.15836
4.85926
4.56219
4.26798
3.97732
3.69083
3.40892
3.13183
2.85965
2.59234
2.32974
2.0716
1.8176
1.56735
1.32042
1.07635
0.834652
0.594807
0.356308
0.11859
)
;
    }
    lowerWall
    {
        type            calculated;
        value           nonuniform List<scalar> 
62
(
2141.31
2149.22
2152.1
2151.11
2148.16
2144.9
2141.99
2139.64
2138.04
2137.59
2138.97
2143.39
2152.76
2169.9
2198.74
2245.16
2315.4
2413.12
2536.45
2667.72
2770.86
2796.42
2838.76
2816.23
2770.96
2765.39
2733.68
2646.16
2485.31
2232.96
1860.2
25.1012
54.9532
7.29408
10.0875
11.6256
11.57
11.5155
11.466
11.4202
11.3805
11.3483
11.3285
11.6551
11.6354
11.6165
11.597
11.5751
11.5495
11.519
11.483
11.4422
11.3981
11.3523
11.3068
11.2634
11.2236
11.1887
11.1597
11.1373
11.1221
11.1144
)
;
    }
    atmosphere
    {
        type            calculated;
        value           nonuniform List<scalar> 
46
(
-0.0659738
-0.066255
-0.0649995
-0.0630844
-0.0605406
-0.0574335
-0.0538301
-0.049805
-0.0454403
-0.0408243
-0.0360511
-0.0312189
-0.026428
-0.0217783
-0.0173672
-0.0132874
-0.00962478
-0.00645613
-0.0038486
-0.00186578
-0.000575323
-2.66641e-05
0
0
0
0
0
0
0
0
0
0
0
0
0
0
0
0
0
0
0
0
0
0
0
0
)
;
    }
    defaultFaces
    {
        type            empty;
    }
}


// ************************************************************************* //
