/*--------------------------------*- C++ -*----------------------------------*\
  =========                 |
  \\      /  F ield         | OpenFOAM: The Open Source CFD Toolbox
   \\    /   O peration     | Website:  https://openfoam.org
    \\  /    A nd           | Version:  13
     \\/     M anipulation  |
\*---------------------------------------------------------------------------*/
FoamFile
{
    format      ascii;
    class       volScalarField;
    location    "0.2";
    object      p_rgh;
}
// * * * * * * * * * * * * * * * * * * * * * * * * * * * * * * * * * * * * * //

dimensions      [1 -1 -2 0 0 0 0];

internalField   nonuniform List<scalar> 
2268
(
2141.31
2149.22
2152.1
2151.11
2148.16
2144.9
2141.99
2139.64
2138.04
2137.59
2138.97
2143.39
2152.76
2169.9
2198.74
2245.16
2315.4
2413.12
2536.45
2667.72
2770.86
2796.42
2838.76
2139.96
2147.77
2150.58
2149.54
2146.57
2143.28
2140.31
2137.86
2136.13
2135.48
2136.6
2140.71
2149.68
2166.25
2194.19
2237.77
2301.93
2392.57
2510.92
2644.83
2758.63
2791.94
2846.61
2137.25
2144.89
2147.54
2146.39
2143.38
2140.04
2136.95
2134.3
2132.27
2131.23
2131.85
2135.32
2143.47
2158.95
2185.32
2226.85
2288.38
2373.01
2480.65
2602.83
2724.62
2804.19
2896.84
2133.21
2140.61
2143.02
2141.7
2138.62
2135.19
2131.92
2128.96
2126.48
2124.84
2124.71
2127.22
2134.14
2148
2172.22
2210.97
2268.64
2347.85
2448.07
2561.05
2682.65
2797.17
2924.11
2127.87
2134.98
2137.07
2135.51
2132.33
2128.77
2125.24
2121.85
2118.76
2116.31
2115.15
2116.36
2121.61
2133.3
2154.71
2189.83
2242.82
2316.19
2409.99
2517.47
2635.11
2756.58
2900.1
2121.26
2128.06
2129.73
2127.88
2124.55
2120.81
2116.93
2112.98
2109.1
2105.62
2103.14
2102.68
2105.78
2114.7
2132.52
2163.13
2210.6
2277.39
2363.96
2465.09
2574.49
2683.5
2797.56
2113.47
2119.9
2121.04
2118.82
2115.32
2111.35
2107.02
2102.37
2097.53
2092.8
2088.72
2086.23
2086.71
2092.2
2105.6
2130.64
2171.33
2230.28
2308.09
2399.71
2494.33
2575.02
2597.77
2104.56
2110.51
2110.98
2108.34
2104.66
2100.41
2095.55
2090.07
2084.1
2077.91
2071.99
2067.15
2064.59
2066.13
2074.35
2092.73
2125.21
2174.36
2241.19
2319.31
2391.31
2433.77
2281.15
11.6551
11.6354
11.6165
11.597
11.5751
11.5495
11.519
11.483
11.4422
11.3981
11.3523
11.3068
11.2634
11.2236
11.1887
11.1597
11.1373
11.1221
11.1144
11.6583
11.6356
11.6166
11.5974
11.5757
11.5504
11.5199
11.4838
11.4428
11.3983
11.3522
11.3064
11.2628
11.2227
11.1876
11.1585
11.136
11.1207
11.113
11.6626
11.6364
11.6169
11.5982
11.5769
11.5521
11.5218
11.4855
11.444
11.3989
11.3521
11.3057
11.2614
11.2209
11.1855
11.156
11.1333
11.118
11.1102
11.672
11.6376
11.6169
11.5993
11.5787
11.5547
11.5247
11.4881
11.4458
11.3997
11.3519
11.3045
11.2594
11.2182
11.1821
11.1523
11.1293
11.1137
11.1059
11.6851
11.6383
11.6164
11.6009
11.5812
11.5584
11.5287
11.4916
11.4484
11.4009
11.3517
11.3029
11.2566
11.2145
11.1777
11.1473
11.1239
11.1081
11.1001
11.7042
11.6374
11.6159
11.6017
11.5842
11.5631
11.534
11.4963
11.4516
11.4024
11.3513
11.3008
11.2531
11.2098
11.172
11.1409
11.1171
11.1009
11.0928
11.7309
11.6315
11.6145
11.6023
11.5878
11.5692
11.5407
11.5022
11.4557
11.4042
11.3508
11.2983
11.2488
11.204
11.1651
11.1332
11.1088
11.0923
11.084
11.7699
11.6161
11.6121
11.603
11.5924
11.5768
11.5491
11.5095
11.4606
11.4063
11.3502
11.2952
11.2435
11.1971
11.157
11.1241
11.099
11.0821
11.0736
2088.88
2093.89
2093.36
2090.02
2085.89
2081.04
2075.12
2068.07
2060
2051.12
2041.79
2032.58
2024.39
2018.57
2017.13
2023.21
2040.79
2071.13
2116.85
2166.03
2184.88
2115.27
1534.49
2063.03
2066.72
2064.7
2060.24
2055.07
2048.75
2040.65
2030.61
2018.63
2004.72
1988.92
1971.32
1952.06
1931.23
1909.67
1890.69
1880.86
1881.96
1885.6
1888.1
1860.67
1753.64
1449.58
2033.52
2035.64
2031.91
2026.17
2019.62
2011.27
2000.31
1986.46
1969.56
1949.28
1925.27
1896.78
1862.69
1821.07
1770.12
1711.04
1654.05
1599.52
1561.14
1511.62
1458.8
1431.9
1377.56
2001.09
2001.5
1995.99
1988.85
1980.54
1969.61
1955.13
1936.71
1913.86
1885.87
1851.9
1809.96
1758.25
1691.02
1598.04
1474.23
1328.96
1080.95
821.371
598.755
505.881
634.408
946.908
1966.55
1965.19
1957.98
1949.33
1938.91
1924.93
1906.41
1882.76
1853.11
1816.49
1771.46
1715.53
1646.6
1546.55
1392.96
1089.24
671.067
161.046
3.43772
6.07899
7.18219
22.7872
118.203
1930.63
1927.41
1918.7
1908.48
1895.72
1878.44
1855.64
1826.5
1789.96
1744.7
1688.91
1618.86
1525.77
1366.33
839.704
132.78
4.03901
1.03179
0.380939
-0.0476348
-0.0641687
0.334111
2.50503
1894.37
1889.12
1879.23
1867.58
1852.56
1832.16
1805.36
1771.16
1728.44
1673.72
1604.69
1511.41
1254.12
534.944
8.23857
2.59825
0.919825
0.206788
-0.113856
-0.450266
-0.903369
-1.47472
-1.73929
1859.63
1852.55
1842
1828.97
1811.92
1788.76
1757.97
1718.18
1667.64
1595.43
1396.75
887.837
208.518
2.45408
2.59657
1.33355
0.398797
-0.081006
-0.391371
-0.776619
-1.31842
-1.96201
-2.53889
1826.09
1816.82
1805.91
1790.59
1770.7
1744.02
1704
1595.34
1353.23
877.999
335.28
1.89452
1.50034
1.88877
2.32356
3.28847
1.03365
-0.331926
-0.585663
-0.904992
-1.41087
-2.00635
-2.51511
1772.26
1663.52
1650.35
1580.94
1453.4
1254.37
941.293
545.106
194.668
2.57714
1.8825
1.89501
1.73935
1.74896
3.57023
6.93579
3.76787
-0.441948
-0.661759
-0.936054
-1.3706
-1.84546
-2.26551
815.056
479.005
461.101
359.227
225.085
91.7161
3.63352
3.28154
2.8922
2.56486
2.09047
1.72816
1.50229
1.50445
5.21077
7.16487
4.86922
-0.420208
-0.653304
-0.887626
-1.25585
-1.66246
-2.06945
3.74994
3.75081
3.70509
3.63033
3.52537
3.39645
3.35309
3.19475
2.89508
2.48603
1.97952
1.47362
1.10361
1.05756
4.53464
7.47738
4.79288
-0.419821
-0.558267
-0.766767
-1.09863
-1.49935
-1.94535
3.74696
3.74306
3.70288
3.642
3.56137
3.46057
3.35097
3.17621
2.87289
2.41754
1.80178
2.08042
1.21598
0.475352
3.799
7.73841
3.6559
-0.344411
-0.383505
-0.57888
-0.892865
-1.30482
-1.81811
3.7378
3.72839
3.69633
3.64446
3.57527
3.48513
3.36317
3.17664
2.85754
2.37477
2.38245
2.40073
1.71745
0.0962452
2.856
7.97272
1.42876
-0.0879557
-0.147948
-0.331975
-0.632807
-1.05487
-1.62383
3.73644
3.71779
3.69278
3.64954
3.58844
3.50481
3.38565
3.20215
2.88524
2.41477
3.43486
2.40213
1.73308
0.143574
2.21314
4.50447
0.135836
0.207541
0.13852
-0.0351719
-0.315879
-0.721732
-1.31268
3.74583
3.72557
3.703
3.66403
3.60838
3.53068
3.4213
3.25364
2.96462
2.57215
3.03441
2.86447
2.22621
1.15049
2.51815
1.74496
0.512381
0.548191
0.467224
0.304751
0.0529002
-0.313015
-0.850073
3.76426
3.74646
3.72521
3.6891
3.63765
3.56618
3.4678
3.32168
3.07945
2.70471
2.19792
2.27118
1.53905
0.90135
0.830515
0.904704
0.95377
0.922144
0.836467
0.688291
0.476806
0.17767
-0.252923
3.79286
3.77958
3.75827
3.72472
3.67695
3.61154
3.5237
3.39972
3.20925
2.92484
2.55363
2.14677
1.79336
1.55695
1.46496
1.44598
1.40504
1.33768
1.23583
1.11034
0.95114
0.739921
0.451786
3.83269
3.82194
3.80159
3.77024
3.72594
3.66608
3.58739
3.48227
3.33459
3.12721
2.86236
2.57684
2.32138
2.12708
1.99906
1.90743
1.81897
1.73463
1.64762
1.55555
1.45508
1.33906
1.20581
3.88217
3.87272
3.85379
3.82467
3.78382
3.72922
3.65843
3.56728
3.44807
3.29307
3.10448
2.90013
2.70335
2.53452
2.40054
2.29234
2.20127
2.12564
2.06021
2.00496
1.96062
1.92972
1.92557
3.93955
3.93102
3.91361
3.88684
3.84962
3.80038
3.73724
3.65766
3.55801
3.43531
3.29154
3.13662
2.98496
2.84872
2.73239
2.63543
2.55813
2.50019
2.45997
2.44006
2.44425
2.48061
2.56689
4.00334
3.9956
3.97979
3.95554
3.92213
3.87848
3.82325
3.75489
3.6717
3.57292
3.4609
3.34211
3.22527
3.11797
3.02443
2.94718
2.88902
2.85146
2.83611
2.84698
2.88943
2.97323
3.11476
4.07231
4.06534
4.05117
4.02955
4.00006
3.96203
3.91467
3.85712
3.78872
3.70966
3.6221
3.53057
3.441
3.35869
3.28759
3.23119
3.19287
3.17538
3.18202
3.2174
3.28737
3.40117
3.57056
4.14543
4.13927
4.12679
4.10784
4.08224
4.04966
4.00972
3.96208
3.90665
3.84397
3.77598
3.70614
3.63874
3.57782
3.52699
3.4898
3.46975
3.47013
3.49465
3.54798
3.63586
3.76675
3.94532
4.22191
4.21657
4.20576
4.18946
4.16762
4.14018
4.10707
4.06832
4.02415
3.9753
3.92341
3.87117
3.82188
3.77893
3.74554
3.72497
3.72051
3.73553
3.77367
3.83906
3.9361
4.06949
4.25003
4.30104
4.29652
4.28734
4.27358
4.25529
4.23261
4.20568
4.17475
4.14027
4.10302
4.06444
4.02665
3.99228
3.96418
3.94524
3.9384
3.94663
3.97304
4.02087
4.09354
4.19463
4.3281
4.49973
4.3822
4.37846
4.37084
4.35946
4.34448
4.32612
4.30467
4.28053
4.25426
4.22669
4.19905
4.1731
4.15095
4.135
4.12778
4.13189
4.14994
4.18459
4.23859
4.31477
4.41587
4.54473
4.70435
4.46483
4.4618
4.45564
4.44648
4.43452
4.42003
4.40339
4.38508
4.36573
4.34615
4.32746
4.3111
4.29882
4.29261
4.29463
4.30714
4.33236
4.37252
4.42984
4.50657
4.60476
4.72622
4.87248
4.54841
4.54604
4.54122
4.53408
4.52485
4.51381
4.50134
4.488
4.4744
4.46135
4.44987
4.44117
4.4367
4.43809
4.44718
4.46582
4.4959
4.53926
4.59766
4.6728
4.76609
4.87868
5.01124
4.63254
4.63074
4.62713
4.62181
4.61501
4.60699
4.59815
4.589
4.58015
4.57238
4.56661
4.56389
4.56541
4.57254
4.58677
4.60963
4.64266
4.68734
4.74506
4.81706
4.90429
5.00737
5.1265
4.71686
4.71557
4.71303
4.70932
4.70464
4.69924
4.69349
4.68785
4.68291
4.67937
4.67805
4.67987
4.68584
4.69709
4.71483
4.74029
4.7747
4.81924
4.87497
4.94277
5.02323
5.11665
5.22297
4.80112
4.80028
4.79867
4.79634
4.79348
4.7903
4.78714
4.78441
4.78263
4.78243
4.78453
4.78971
4.79884
4.81286
4.83273
4.85945
4.89397
4.93722
4.98998
5.05287
5.12624
5.21019
5.30445
4.88515
4.88469
4.88385
4.88268
4.88132
4.87999
4.87895
4.87858
4.87932
4.88171
4.88635
4.89393
4.90517
4.92084
4.94173
4.96861
5.00225
5.04332
5.09241
5.14994
5.21612
5.29089
5.37386
4.96876
4.96863
4.96841
4.96818
4.96805
4.9682
4.96886
4.97034
4.97303
4.97735
4.98382
4.993
5.0055
5.02195
5.04295
5.06914
5.1011
5.13934
5.18426
5.23615
5.29512
5.36114
5.43349
5.05185
5.05196
5.05224
5.05275
5.05357
5.05487
5.05684
5.05973
5.06385
5.06955
5.07723
5.08736
5.10044
5.11694
5.13737
5.1622
5.19188
5.22679
5.26721
5.31329
5.36503
5.42221
5.48503
5.13433
5.13463
5.1353
5.13635
5.1379
5.14005
5.14297
5.14685
5.15195
5.15853
5.16691
5.17745
5.19053
5.20653
5.22584
5.2488
5.27576
5.30699
5.34268
5.3829
5.42763
5.47672
5.53016
5.21616
5.21661
5.21756
5.21902
5.22108
5.22382
5.22738
5.23191
5.23758
5.24461
5.25324
5.26373
5.27635
5.2914
5.30914
5.32986
5.35377
5.38108
5.4119
5.44626
5.48413
5.52539
5.56993
5.29732
5.29786
5.29901
5.30074
5.30314
5.30627
5.31022
5.3151
5.32103
5.32816
5.33665
5.3467
5.35849
5.37221
5.38806
5.40623
5.42686
5.45007
5.47593
5.50444
5.53557
5.56922
5.60528
5.37769
5.37827
5.37954
5.38145
5.38406
5.38742
5.39156
5.39656
5.4025
5.40945
5.41753
5.42685
5.4375
5.44962
5.46332
5.47871
5.49588
5.51488
5.53573
5.55842
5.58291
5.60913
5.63701
5.45689
5.45746
5.45881
5.46082
5.46354
5.467
5.4712
5.47618
5.48194
5.48855
5.49602
5.50441
5.51376
5.52411
5.53551
5.54799
5.5616
5.57633
5.59216
5.60907
5.62701
5.64595
5.66585
5.53545
5.53596
5.53731
5.53935
5.54211
5.54557
5.54971
5.55452
5.55998
5.56608
5.57278
5.58009
5.58796
5.5964
5.60537
5.61486
5.62483
5.63526
5.64608
5.65725
5.66871
5.68044
5.69247
5.61792
5.61815
5.61942
5.6214
5.62407
5.62738
5.63126
5.63567
5.64053
5.6458
5.65139
5.65723
5.66325
5.66937
5.67552
5.68161
5.68759
5.69337
5.69889
5.70409
5.70888
5.71326
5.71735
494.985
464.215
12.4699
12.23
966.169
716.278
598.252
398.143
1200.27
1034.13
940.728
871.586
1077.13
1042.19
1008.74
997.299
232.563
376.212
850.267
1030.61
3.47415
5.09261
77.4411
657.818
-1.52359
-1.40133
0.282869
127.305
-2.70731
-2.69459
-2.75884
0.272438
-2.72152
-2.82827
-3.13546
-2.89123
-2.51812
-2.68083
-2.97109
-3.21271
-2.39821
-2.62147
-2.89829
-3.19554
-2.31859
-2.58549
-2.90784
-3.21637
-2.27268
-2.53282
-2.89135
-3.14121
-2.19969
-2.52104
-2.31708
-3.08082
-1.89576
-2.1613
-0.760934
-0.052728
-1.3879
-1.67096
-1.42551
0.402454
-0.691447
-0.9786
-1.2178
-0.964651
0.176607
-0.0157286
-0.235141
-0.475475
1.11405
1.06533
1.00262
0.895623
1.96739
2.01954
2.08532
2.15014
2.68746
2.79096
2.91734
3.06218
3.27646
3.4041
3.55401
3.72475
3.74766
3.88096
4.03312
4.20302
4.12163
4.25041
4.39414
4.55162
4.41792
4.53757
4.66853
4.80973
4.65452
4.76295
4.87987
5.00434
4.84456
4.94146
5.04473
5.15358
4.99811
5.08403
5.17474
5.26964
5.12302
5.19883
5.27832
5.36097
5.22543
5.29212
5.36166
5.43365
5.31017
5.36866
5.4294
5.49206
5.38096
5.43208
5.485
5.53943
5.44065
5.48512
5.53103
5.57813
5.49137
5.52981
5.56938
5.60988
5.53478
5.5677
5.60149
5.636
5.57227
5.60006
5.62852
5.65752
5.60486
5.62785
5.65134
5.67525
5.6334
5.65186
5.67069
5.68982
5.65862
5.67278
5.68718
5.7018
5.68117
5.69118
5.70135
5.71165
5.70163
5.70759
5.71364
5.71976
5.72041
5.72239
5.72439
5.72641
11.8514
11.5578
11.6101
11.603
11.6008
11.5917
11.5654
11.5232
11.4697
11.4101
11.3488
11.2892
11.2339
11.1845
11.1421
11.1076
11.0814
11.0638
11.0549
15.38
11.8394
11.6038
11.5799
11.6129
11.6231
11.5993
11.5505
11.4868
11.4164
11.3453
11.2776
11.2157
11.1613
11.1153
11.0781
11.0501
11.0313
11.022
320.982
12.0841
11.3821
11.4688
11.6292
11.678
11.6519
11.5889
11.5086
11.4229
11.3388
11.2608
11.1912
11.1311
11.0809
11.0408
11.0109
10.991
10.981
834.814
125.944
11.0424
11.4673
11.7137
11.7812
11.7321
11.6404
11.5341
11.4272
11.3269
11.2368
11.1585
11.0922
11.0378
10.9949
10.9631
10.942
10.9316
964.713
385.625
18.1273
11.7598
11.9713
11.9508
11.842
11.7022
11.5592
11.4251
11.3057
11.2025
11.1154
11.0432
10.9849
10.9395
10.906
10.8841
10.8732
990.769
669.143
54.8089
12.903
12.2633
12.168
11.9725
11.7638
11.575
11.4098
11.2702
11.1543
11.0593
10.9823
10.921
10.8737
10.8391
10.8165
10.8054
913.179
870.137
126.93
14.7048
12.7893
12.4244
12.1032
11.8113
11.568
11.3712
11.2136
11.0879
10.9876
10.9077
10.8449
10.7969
10.7619
10.7391
10.7279
860.002
834.068
233.545
16.35
13.51
12.709
12.2085
11.8115
11.5177
11.2969
11.1291
10.9996
10.8982
10.8185
10.7562
10.7087
10.6742
10.6516
10.6405
704.892
837.218
273.052
17.5035
13.9549
12.8715
12.1851
11.7163
11.3997
11.1754
11.0112
10.8869
10.7903
10.7143
10.6548
10.6091
10.5759
10.5542
10.5435
541.711
896.436
227.016
17.5991
13.6903
12.6788
11.9449
11.4855
11.1975
11.0013
10.859
10.7505
10.6647
10.5959
10.5412
10.4987
10.4676
10.4471
10.437
457.716
856.631
186.215
16.4148
12.7622
11.9792
11.4322
11.1067
10.9144
10.781
10.6783
10.5946
10.5243
10.4653
10.4168
10.3784
10.3498
10.3309
10.3215
519.461
838.216
184.107
12.1054
11.1395
10.7608
10.6702
10.6093
10.5792
10.5349
10.4824
10.4273
10.374
10.3254
10.2835
10.2493
10.2235
10.2061
10.1975
427.727
824.242
217.652
9.05205
8.8874
9.12602
9.79125
10.1132
10.2543
10.2965
10.2895
10.2588
10.2194
10.1794
10.1431
10.1127
10.0893
10.0735
10.0656
28.4956
829.097
653.474
37.4954
7.40249
7.88647
9.03439
9.75797
10.0183
10.1017
10.1164
10.0971
10.0646
10.0296
9.99701
9.96942
9.94809
9.93366
9.92641
-0.870866
540.963
688.448
269.654
11.9459
8.36042
9.01195
9.70112
9.92142
9.9707
9.96984
9.94457
9.91075
9.8766
9.84578
9.82008
9.80037
9.78711
9.78047
0.813583
48.9789
465.164
441.916
62.6332
10.7478
9.78467
9.90173
9.91942
9.88079
9.83858
9.7956
9.75513
9.71937
9.68914
9.66479
9.64651
9.63434
9.62828
-0.0200693
-0.47201
62.5372
146.974
85.171
13.9231
10.3498
10.0518
9.8958
9.77986
9.69947
9.63965
9.59289
9.55574
9.52629
9.50349
9.48676
9.4758
9.47038
-0.604448
2.27153
6.01794
13.6295
27.7794
13.7606
10.4701
10.0028
9.77358
9.62826
9.53301
9.46727
9.41954
9.38376
9.35658
9.33617
9.3215
9.31202
9.30737
1.0621
2.54357
4.31813
8.50741
10.225
10.5835
9.98907
9.71054
9.53498
9.41457
9.33213
9.27458
9.23321
9.20272
9.17999
9.16321
9.15131
9.14368
9.13998
2.39631
3.37868
5.0403
7.34744
8.82831
9.29109
9.35256
9.2962
9.22095
9.15454
9.10282
9.06407
9.0352
9.01359
8.9974
8.98547
8.97705
8.97168
8.96908
3.39377
4.26845
5.5511
7.00337
8.04994
8.57595
8.79942
8.87036
8.88311
8.87307
8.85732
8.84208
8.82911
8.81864
8.81046
8.80429
8.79988
8.79707
8.79571
4.07501
4.81664
5.77478
6.78383
7.57109
8.05989
8.33561
8.48069
8.5542
8.59031
8.60767
8.61581
8.61943
8.62081
8.62124
8.62127
8.62115
8.62104
8.621
4.53245
5.15026
5.8792
6.61806
7.2315
7.66746
7.95461
8.13606
8.24891
8.31901
8.36307
8.39158
8.41051
8.42309
8.43196
8.43811
8.44226
8.44483
8.44611
4.84591
5.35665
5.92712
6.49393
6.98508
7.36638
7.64387
7.83854
7.97291
8.06531
8.12926
8.1741
8.20608
8.228
8.24466
8.25646
8.26457
8.26964
8.2722
5.06696
5.49034
5.94743
6.39811
6.80054
7.13168
7.3896
7.58374
7.72717
7.83233
7.90935
7.96596
8.00775
8.03843
8.06124
8.07778
8.08931
8.09656
8.10033
5.22712
5.58069
5.95424
6.32169
6.65713
6.94445
7.17932
7.36528
7.50959
7.62034
7.70483
7.76916
7.81804
7.855
7.88278
7.90317
7.9175
7.92656
7.93131
5.34595
5.64363
5.95381
6.25895
6.5421
6.79172
7.00311
7.17693
7.31693
7.42818
7.5158
7.58437
7.63771
7.67885
7.7102
7.73347
7.74994
7.76043
7.76585
5.4358
5.68831
5.94906
6.20587
6.44713
6.66438
6.85331
7.01319
7.14576
7.25404
7.3415
7.41149
7.467
7.51053
7.5441
7.56926
7.5872
7.59869
7.60455
5.50473
5.72028
5.9415
6.15971
6.36665
6.55601
6.72404
6.86946
6.99282
7.09583
7.18075
7.24998
7.30578
7.35013
7.38472
7.41089
7.42966
7.44174
7.44784
5.55819
5.74304
5.93195
6.11856
6.29684
6.46198
6.61083
6.74193
6.85519
6.95147
7.03219
7.09901
7.15361
7.19752
7.2321
7.25846
7.27749
7.28979
7.29594
5.60002
5.75897
5.92091
6.08109
6.235
6.37892
6.51024
6.62752
6.73033
6.81901
6.89441
6.95763
7.00988
7.05234
7.08606
7.11194
7.13072
7.14291
7.14896
5.63291
5.76967
5.90867
6.04631
6.17916
6.30431
6.41962
6.52374
6.6161
6.69672
6.76606
6.82483
6.8739
6.91411
6.94628
6.97113
6.98923
7.00103
7.00684
5.65879
5.77624
5.89539
6.01348
6.12786
6.23625
6.33688
6.42855
6.51066
6.58304
6.64589
6.69965
6.7449
6.78227
6.81236
6.83571
6.8528
6.86397
6.86943
5.67909
5.77949
5.88119
5.98205
6.08002
6.17328
6.2604
6.34034
6.4125
6.47662
6.53275
6.58113
6.62214
6.65622
6.6838
6.70532
6.72111
6.73146
6.73649
5.69487
5.78
5.86613
5.95159
6.03478
6.11428
6.18889
6.25777
6.32033
6.37629
6.4256
6.46837
6.50484
6.53531
6.56009
6.57949
6.59377
6.60316
6.60768
5.70693
5.77822
5.85027
5.92178
5.99152
6.05835
6.12133
6.17973
6.23305
6.281
6.32349
6.36054
6.39228
6.41892
6.44067
6.45774
6.47035
6.47865
6.48262
5.71591
5.77449
5.83363
5.89236
5.94969
6.00477
6.05683
6.10529
6.14972
6.18985
6.22556
6.25683
6.28374
6.3064
6.32496
6.33957
6.35038
6.35752
6.36089
5.72233
5.7691
5.81627
5.86311
5.9089
5.95295
5.9947
6.03367
6.06951
6.10201
6.13102
6.15652
6.17853
6.19712
6.21238
6.22443
6.23335
6.23926
6.24202
5.72662
5.76226
5.79819
5.83386
5.86876
5.90238
5.9343
5.96416
5.9917
6.01673
6.03915
6.0589
6.07599
6.09045
6.10236
6.11177
6.11876
6.12339
6.12551
5.72911
5.75417
5.7794
5.80445
5.82896
5.85261
5.87509
5.89615
5.91562
5.93335
5.94925
5.96329
5.97547
5.98579
5.9943
6.00104
6.00605
6.00939
6.01086
5.73012
5.74496
5.7599
5.77473
5.78924
5.80325
5.81658
5.82909
5.84067
5.85122
5.8607
5.86909
5.87637
5.88255
5.88765
5.8917
5.8947
5.89673
5.89756
5.72982
5.73471
5.73962
5.74449
5.74926
5.75386
5.75825
5.76237
5.76618
5.76967
5.7728
5.77558
5.778
5.78005
5.78175
5.78309
5.78409
5.78478
5.78503
)
;

boundaryField
{
    leftWall
    {
        type            fixedFluxPressure;
        gradient        uniform 0;
        value           nonuniform List<scalar> 
50
(
2141.31
2139.96
2137.25
2133.21
2127.87
2121.26
2113.47
2104.56
2088.88
2063.03
2033.52
2001.09
1966.55
1930.63
1894.37
1859.63
1826.09
1772.26
815.056
3.74994
3.74696
3.7378
3.73644
3.74583
3.76426
3.79286
3.83269
3.88217
3.93955
4.00334
4.07231
4.14543
4.22191
4.30104
4.3822
4.46483
4.54841
4.63254
4.71686
4.80112
4.88515
4.96876
5.05185
5.13433
5.21616
5.29732
5.37769
5.45689
5.53545
5.61792
)
;
    }
    rightWall
    {
        type            fixedFluxPressure;
        gradient        uniform 0;
        value           nonuniform List<scalar> 
50
(
11.1144
11.113
11.1102
11.1059
11.1001
11.0928
11.084
11.0736
11.0549
11.022
10.981
10.9316
10.8732
10.8054
10.7279
10.6405
10.5435
10.437
10.3215
10.1975
10.0656
9.92641
9.78047
9.62828
9.47038
9.30737
9.13998
8.96908
8.79571
8.621
8.44611
8.2722
8.10033
7.93131
7.76585
7.60455
7.44784
7.29594
7.14896
7.00684
6.86943
6.73649
6.60768
6.48262
6.36089
6.24202
6.12551
6.01086
5.89756
5.78503
)
;
    }
    lowerWall
    {
        type            fixedFluxPressure;
        gradient        uniform 0;
        value           nonuniform List<scalar> 
62
(
2141.31
2149.22
2152.1
2151.11
2148.16
2144.9
2141.99
2139.64
2138.04
2137.59
2138.97
2143.39
2152.76
2169.9
2198.74
2245.16
2315.4
2413.12
2536.45
2667.72
2770.86
2796.42
2838.76
2838.76
2846.61
2896.84
2924.11
2900.1
2797.56
2597.77
2281.15
494.985
464.215
12.4699
12.23
11.6551
11.6583
11.6626
11.672
11.6851
11.7042
11.7309
11.7699
11.6551
11.6354
11.6165
11.597
11.5751
11.5495
11.519
11.483
11.4422
11.3981
11.3523
11.3068
11.2634
11.2236
11.1887
11.1597
11.1373
11.1221
11.1144
)
;
    }
    atmosphere
    {
        type            prghTotalPressure;
        rho             rho;
        psi             none;
        gamma           1;
        p0              uniform 0;
        value           nonuniform List<scalar> 
46
(
5.66307
5.66279
5.66404
5.66596
5.6685
5.67161
5.67521
5.67923
5.6836
5.68822
5.69299
5.69782
5.70261
5.70726
5.71167
5.71575
5.71942
5.72258
5.72519
5.72717
5.72846
5.72901
5.72904
5.72904
5.72904
5.72904
5.72904
5.72904
5.72904
5.72904
5.72904
5.72904
5.72904
5.72904
5.72904
5.72904
5.72904
5.72904
5.72904
5.72904
5.72904
5.72904
5.72904
5.72904
5.72904
5.72904
)
;
        rho             rho;
    }
    defaultFaces
    {
        type            empty;
    }
}


// ************************************************************************* //
