/*--------------------------------*- C++ -*----------------------------------*\
  =========                 |
  \\      /  F ield         | OpenFOAM: The Open Source CFD Toolbox
   \\    /   O peration     | Website:  https://openfoam.org
    \\  /    A nd           | Version:  13
     \\/     M anipulation  |
\*---------------------------------------------------------------------------*/
FoamFile
{
    format      ascii;
    class       volScalarField;
    location    "0.05";
    object      alpha.water;
}
// * * * * * * * * * * * * * * * * * * * * * * * * * * * * * * * * * * * * * //

dimensions      [];

internalField   nonuniform List<scalar> 
2268
(
1
1
1
1
1
1
1
1
1
1
1
1
1
0.944581
0.483284
0.0337758
0.00771377
0.00160036
0.000242267
2.70997e-05
2.11296e-06
1.88242e-07
1.51425e-07
0.999999
1
1
1
1
0.999999
0.999999
1
1
1
1
1
0.999082
0.745824
0.222418
0.0251829
0.00736631
0.00161695
0.000267691
3.20959e-05
2.61191e-06
1.93264e-07
9.11984e-08
1
1
1
1
1
1
1
1
1
1
1
1
0.986944
0.48094
0.0432178
0.0108256
0.00442227
0.00140334
0.000241999
2.43114e-05
2.20024e-06
1.53126e-07
4.23119e-08
1
1
1
1
1
1
1
1
1
1
1
1
0.955325
0.317313
0.0155124
0.00468815
0.00147403
0.000434897
8.7097e-05
8.7863e-06
7.85533e-07
5.02401e-08
1.93551e-08
1
1
1
1
1
1
1
1
1
1
1
1
0.904984
0.217373
0.0087317
0.00207332
0.000548177
0.000119875
2.01167e-05
2.68064e-06
2.62246e-07
2.2228e-08
9.0459e-09
1
1
1
1
1
1
1
1
1
1
1
1
0.849126
0.145424
0.00539992
0.00095441
0.000214044
4.28818e-05
7.37332e-06
1.04825e-06
1.13263e-07
1.05163e-08
4.38891e-09
1
1
1
1
1
1
1
1
1
1
1
1
0.796617
0.0996113
0.00283654
0.000429969
7.8292e-05
1.50137e-05
2.55403e-06
3.78394e-07
4.50885e-08
4.82555e-09
1.96475e-09
1
1
1
1
1
1
1
1
1
1
1
1
0.751923
0.0725314
0.00153303
0.000209478
3.07504e-05
5.27152e-06
8.78758e-07
1.33548e-07
1.75755e-08
2.08373e-09
7.00358e-10
1.4443e-25
2.45732e-26
1.56137e-28
2.04373e-30
4.8771e-32
1.23705e-33
5.78713e-35
1.39278e-36
2.80783e-38
5.19569e-40
8.54982e-42
1.23043e-43
1.51894e-45
1.56742e-47
1.30516e-49
8.42076e-52
3.81619e-54
1.02809e-56
5.05695e-57
8.59105e-24
2.88018e-24
2.82635e-26
9.55696e-29
2.04386e-30
4.88493e-32
6.95608e-33
1.83014e-34
3.35266e-36
6.1631e-38
1.00902e-39
1.4602e-41
1.80753e-43
1.85949e-45
1.51702e-47
9.19493e-50
3.56901e-52
5.7255e-55
5.3802e-57
6.86069e-22
1.73247e-22
1.78694e-24
1.09572e-26
2.43538e-28
6.02652e-30
4.13145e-31
9.79053e-33
1.86786e-34
3.40945e-36
5.52735e-38
7.8254e-40
9.39941e-42
9.28031e-44
7.08236e-46
3.77991e-48
1.57606e-50
3.48482e-53
4.51615e-55
3.16928e-20
6.90892e-21
7.91657e-23
5.94135e-25
1.46476e-26
3.72705e-28
1.6973e-29
3.73978e-31
7.37093e-33
1.32362e-34
2.10696e-36
2.90491e-38
3.35269e-40
3.10965e-42
2.58103e-44
1.63869e-46
7.00774e-49
1.55144e-51
2.66834e-53
9.89677e-19
2.01672e-19
2.58985e-21
1.81981e-23
4.98888e-25
1.5555e-26
5.30605e-28
1.13543e-29
2.21605e-31
3.90325e-33
6.03945e-35
8.00075e-37
9.90736e-39
1.03707e-40
8.71316e-43
5.52235e-45
2.35486e-47
5.18989e-50
1.12066e-51
2.33781e-17
4.59591e-18
6.53949e-20
4.35943e-22
1.26159e-23
5.73545e-25
1.34543e-26
2.91997e-28
5.88068e-30
1.05272e-31
1.75738e-33
2.67876e-35
3.51841e-37
3.88966e-39
3.49108e-41
2.38847e-43
1.08653e-45
2.2187e-48
3.57534e-50
1.44487e-15
2.4305e-16
1.88414e-18
2.19644e-20
4.84693e-22
1.21056e-23
2.57039e-25
5.30091e-27
1.00783e-28
1.91103e-30
3.31683e-32
5.03605e-34
6.65673e-36
7.54731e-38
7.21419e-40
5.68015e-42
3.56051e-44
1.55672e-46
8.81394e-49
4.32326e-14
3.23214e-15
3.98767e-17
5.25315e-19
7.87471e-21
1.70874e-22
3.59924e-24
6.8966e-26
1.27023e-27
2.34257e-29
3.83779e-31
5.57452e-33
6.96354e-35
7.3389e-37
6.36139e-39
4.40059e-41
2.33878e-43
8.87086e-46
1.81761e-47
1
1
1
1
1
1
1
1
1
1
1
1
0.687964
0.0449239
0.000856756
0.000104917
1.25393e-05
1.43247e-06
2.08273e-07
3.07726e-08
4.58695e-09
7.04559e-10
2.13816e-10
1
1
1
1
1
1
1
1
1
1
1
1
0.592266
0.0184819
0.000427629
4.89178e-05
3.81361e-06
4.06767e-07
4.93856e-08
6.86193e-09
1.03231e-09
1.85526e-10
4.95412e-11
1
1
1
1
1
1
1
1
1
1
1
1
0.511774
0.00715195
0.000215286
2.6234e-05
2.00928e-06
1.50175e-07
1.50835e-08
1.78798e-09
2.42056e-10
4.09279e-11
1.16794e-11
1
1
1
1
1
1
1
1
1
1
1
1
0.44195
0.00283082
0.000136201
1.30011e-05
9.26339e-07
6.4142e-08
4.77503e-09
4.8673e-10
5.9958e-11
1.24937e-11
2.28163e-12
1
1
1
1
1
1
1
1
1
1
1
1
0.381602
0.00107148
9.47853e-05
6.80031e-06
4.21287e-07
2.77997e-08
1.8962e-09
1.51627e-10
1.67215e-11
3.64621e-12
4.54034e-13
1
1
1
1
1
1
1
1
1
1
1
1
0.329332
0.00069505
6.40794e-05
3.74687e-06
2.06532e-07
1.23067e-08
7.84941e-10
5.78256e-11
7.00105e-12
1.00882e-12
9.43553e-14
1
1
1
1
1
1
1
1
1
1
1
1
0.284421
0.000463112
4.11239e-05
2.04222e-06
1.01929e-07
5.52712e-09
3.24372e-10
2.24365e-11
2.95936e-12
2.82395e-13
2.11544e-14
1
1
1
1
1
1
1
1
1
1
1
1
0.245503
0.000319797
2.57942e-05
1.11635e-06
5.08092e-08
2.52061e-09
1.36713e-10
8.69998e-12
1.06695e-12
7.92766e-14
5.05247e-15
1
1
1
1
1
1
1
1
1
1
1
1
0.211606
0.000228866
1.66722e-05
6.44165e-07
2.6804e-08
1.21108e-09
6.02913e-11
3.46097e-12
3.67003e-13
2.27421e-14
1.26108e-15
1
1
1
1
1
1
1
1
1
1
1
1
0.181977
0.000177914
1.16173e-05
4.07551e-07
1.53879e-08
6.2988e-10
2.82117e-11
1.51217e-12
1.29546e-13
6.7341e-15
3.27367e-16
1
1
1
1
1
1
1
1
1
1
1
1
0.156004
0.000159101
8.26735e-06
2.64053e-07
9.08722e-09
3.36443e-10
1.35838e-11
7.52576e-13
4.67244e-14
2.03351e-15
8.70119e-17
1
1
1
1
1
1
1
1
1
1
1
1
0.133214
0.000130487
4.78911e-06
1.27775e-07
4.09048e-09
1.4873e-10
6.21868e-12
3.60729e-13
1.65081e-14
6.10486e-16
2.28213e-17
1
1
1
1
1
1
1
1
1
0.999999
0.999999
0.999999
0.1133
9.85066e-05
3.42635e-06
5.71983e-08
1.67937e-09
6.273e-11
2.49191e-12
1.50265e-13
5.5623e-15
1.76995e-16
5.71747e-18
0.999998
0.999998
0.999998
0.999998
0.999997
0.999997
0.999997
0.999997
0.999996
0.999996
0.999995
0.99999
0.0958602
7.30417e-05
8.51185e-07
2.05153e-08
5.38664e-10
1.46908e-11
6.79593e-13
5.6298e-14
1.82478e-15
4.94327e-17
1.35428e-18
0.999983
0.999983
0.999982
0.999981
0.99998
0.999978
0.999976
0.999973
0.99997
0.999965
0.999964
0.999932
0.077715
4.72077e-05
7.32545e-07
2.18537e-08
5.64036e-10
1.15468e-11
2.6229e-13
2.54424e-14
7.07726e-16
1.50333e-17
3.23056e-19
0.999859
0.999856
0.999852
0.999845
0.999836
0.999824
0.99981
0.999791
0.99977
0.999736
0.999738
0.999529
0.0640374
4.44433e-05
1.98425e-06
2.02586e-08
3.22773e-10
1.08071e-11
4.72002e-13
1.55667e-14
3.34987e-16
5.04153e-18
7.55836e-20
0.998832
0.998811
0.998784
0.998742
0.998682
0.998605
0.99851
0.998393
0.99826
0.998038
0.997927
0.996722
0.138689
0.000100195
3.00726e-06
2.8149e-07
3.23124e-09
5.77164e-12
5.63019e-14
2.51278e-15
9.99539e-17
1.03412e-18
1.08655e-20
0.941327
0.940506
0.939081
0.936943
0.933958
0.930135
0.925397
0.919476
0.913065
0.89881
0.884541
0.742822
0.224835
0.00224637
1.80104e-05
8.53902e-07
9.28079e-08
4.07296e-10
4.54412e-14
1.97287e-16
2.34708e-17
1.12377e-19
7.91272e-22
0.28455
0.282884
0.279718
0.275207
0.269259
0.261965
0.253277
0.242874
0.232522
0.208407
0.188088
0.0499351
0.0602866
0.0211779
0.000255976
8.61597e-06
2.29631e-07
5.24726e-10
9.20745e-13
4.62961e-18
1.28352e-18
5.39592e-21
3.77939e-23
1.32483e-22
2.48711e-22
1.8802e-20
1.55584e-18
8.37483e-17
3.29573e-15
1.00527e-13
2.4644e-12
4.97785e-11
8.378e-10
1.22331e-08
1.52458e-07
1.6439e-06
0.00516982
0.00156387
4.01923e-05
3.56965e-07
1.19765e-09
8.22526e-14
2.01247e-17
4.23643e-20
2.85327e-22
2.08921e-24
8.71723e-24
1.3249e-22
2.10417e-20
1.9241e-18
1.17442e-16
5.34359e-15
1.92479e-13
5.69607e-12
1.22811e-10
1.89355e-09
2.28265e-08
2.15565e-07
7.89912e-05
0.000215066
0.000381131
1.23706e-05
7.25473e-08
1.16179e-11
1.47869e-13
2.22367e-19
2.56055e-21
1.38246e-23
1.12401e-25
3.01202e-25
8.7173e-24
1.4427e-21
1.25518e-19
7.24921e-18
3.09006e-16
8.5912e-15
1.86501e-13
3.36315e-12
5.01463e-11
6.15724e-10
6.13865e-09
4.09772e-07
4.34695e-06
1.05593e-06
1.17912e-07
2.17032e-08
2.22615e-11
7.88112e-16
8.73691e-21
1.32162e-22
7.05284e-25
4.68956e-27
3.09482e-27
3.39662e-25
4.41272e-23
2.51433e-21
1.07349e-19
3.63523e-18
1.01315e-16
2.39517e-15
5.40958e-14
1.16036e-12
1.57619e-11
1.54803e-10
3.2033e-08
1.43811e-07
2.65839e-08
7.47732e-09
1.50183e-09
1.1723e-12
1.17779e-16
3.37509e-22
5.29635e-24
3.09423e-26
1.94143e-28
1.20934e-28
3.82577e-27
4.72273e-25
3.5659e-23
1.84597e-21
7.14901e-20
2.25447e-18
5.61758e-17
1.15091e-15
2.70316e-14
4.05796e-13
3.57665e-12
1.29238e-10
9.24333e-10
3.29671e-10
4.26052e-10
1.4576e-11
2.65909e-14
7.54183e-18
2.21247e-23
1.35327e-25
1.08176e-27
6.41496e-30
2.06249e-31
7.1076e-30
1.06717e-27
8.52464e-26
4.51414e-24
1.77768e-22
4.64702e-21
9.3666e-20
1.4323e-18
1.98186e-17
3.78437e-16
5.59623e-15
1.47025e-12
9.68343e-13
2.8248e-12
4.06999e-12
6.25185e-14
9.76186e-17
9.01588e-20
1.75711e-24
1.75528e-27
2.63581e-29
2.04079e-31
5.91107e-35
6.71154e-33
8.48045e-31
4.81388e-29
2.02279e-27
6.67875e-26
1.79094e-24
3.88039e-23
5.59352e-22
7.64019e-21
1.13686e-19
1.68677e-18
2.20932e-16
1.00622e-14
2.01295e-13
1.49818e-14
3.07554e-15
1.08744e-16
1.64924e-21
1.31128e-25
7.61092e-29
4.8874e-31
8.55998e-33
3.10143e-38
5.44061e-36
4.92115e-34
2.94878e-32
1.31377e-30
4.63188e-29
1.3394e-27
3.24481e-26
6.2628e-25
7.99764e-24
1.2447e-21
5.93618e-20
1.82665e-18
2.77851e-16
1.9852e-15
3.02012e-17
8.28598e-17
2.96693e-18
1.20862e-23
6.93663e-27
2.85709e-30
1.87072e-32
3.20682e-34
3.27492e-42
6.51124e-40
6.55614e-38
4.38342e-36
2.19049e-34
8.7259e-33
2.88118e-31
8.10445e-30
1.9747e-28
4.01848e-27
9.22076e-25
4.70261e-23
2.1893e-21
2.88915e-19
2.33709e-18
1.52778e-18
1.95657e-19
1.50559e-20
8.45872e-24
2.42349e-28
9.26199e-32
6.30044e-34
1.06976e-35
8.7277e-46
1.81855e-43
1.89713e-41
1.31548e-39
6.82435e-38
2.82481e-36
9.72279e-35
2.86646e-33
7.4059e-32
1.71452e-30
1.22116e-28
7.22529e-27
2.22928e-25
6.48746e-24
1.266e-21
1.43604e-20
6.1756e-22
1.88232e-23
9.44786e-26
1.87719e-30
2.56903e-33
1.86304e-35
3.16575e-37
4.50595e-50
1.02128e-47
1.15712e-45
8.75669e-44
4.99242e-42
2.293e-40
8.86293e-39
2.97595e-37
8.89752e-36
2.43257e-34
1.23734e-31
8.18371e-30
2.10008e-28
7.06942e-27
1.84918e-24
2.41616e-23
2.8052e-24
2.13002e-26
8.92174e-28
9.71677e-33
6.20488e-35
4.8237e-37
8.32646e-39
1.97812e-55
5.22417e-53
6.90803e-51
6.11601e-49
4.08615e-47
2.20089e-45
9.97213e-44
3.91792e-42
1.36644e-40
4.31785e-39
9.31981e-37
8.43014e-35
2.95422e-33
7.31354e-32
2.40079e-30
7.40134e-28
1.18626e-26
5.69912e-27
2.22265e-31
9.24713e-33
1.54041e-36
1.10381e-38
1.95902e-40
5.10623e-59
1.43612e-56
2.02157e-54
1.90664e-52
1.35919e-50
7.83352e-49
3.81409e-47
1.6198e-45
6.15237e-44
2.13935e-42
5.46046e-40
5.94075e-38
2.44068e-36
7.32413e-35
2.8215e-33
1.2194e-30
2.25982e-29
8.44397e-32
1.69429e-33
9.27803e-35
2.07204e-38
2.20789e-40
3.83552e-42
1.48097e-65
7.98507e-63
1.8068e-60
2.60172e-58
2.77014e-56
2.34206e-54
1.63902e-52
9.77238e-51
5.07912e-49
2.34739e-47
2.83717e-44
3.86975e-42
2.0952e-40
7.78233e-39
3.98739e-37
2.01479e-34
3.95016e-33
9.70407e-37
1.20554e-35
6.9622e-37
2.58906e-40
3.93627e-42
5.96736e-44
5.06319e-70
1.86855e-67
3.45303e-65
4.28176e-63
4.02014e-61
3.05763e-59
1.96878e-57
1.10802e-55
5.589e-54
2.58018e-52
1.13427e-50
4.23201e-48
2.66874e-46
1.20989e-44
4.28245e-43
1.88023e-41
1.71125e-38
4.98582e-37
1.77285e-38
2.73587e-40
1.37154e-41
4.53923e-44
8.40623e-46
2.52208e-75
1.0686e-72
2.26653e-70
3.25948e-68
3.6073e-66
3.29027e-64
2.57801e-62
1.78261e-60
1.109e-58
6.30438e-57
3.37318e-55
1.17886e-51
7.50258e-50
4.68424e-48
2.05698e-46
9.98795e-45
1.38006e-41
4.70008e-40
9.63391e-44
1.16878e-42
9.68789e-44
3.74909e-46
1.00253e-47
6.5184e-82
3.51344e-79
9.48273e-77
1.71922e-74
2.36389e-72
2.63597e-70
2.48887e-68
2.05189e-66
1.5125e-64
1.01653e-62
6.33907e-61
4.20893e-58
4.96813e-56
3.39575e-54
2.20551e-52
1.60461e-50
4.33899e-48
8.70546e-46
2.62861e-44
2.54248e-45
7.09629e-47
1.32816e-47
1.13128e-49
5.94191e-86
3.68721e-83
1.14795e-80
2.4033e-78
3.82078e-76
4.9365e-74
5.41753e-72
5.21318e-70
4.5084e-68
3.57592e-66
2.64752e-64
1.88183e-62
1.25634e-59
9.35454e-58
6.51296e-56
3.83558e-54
3.53189e-52
9.69685e-49
4.79622e-47
3.38079e-48
3.05271e-49
9.2901e-50
1.02288e-51
7.51535e-92
6.62827e-89
2.90869e-86
8.58016e-84
1.9215e-81
3.48641e-79
5.34033e-77
7.11274e-75
8.43228e-73
9.07672e-71
9.03004e-69
8.45733e-67
7.83379e-64
2.85467e-61
2.03642e-59
1.54915e-57
1.49035e-55
8.2875e-52
5.12425e-50
2.23821e-51
1.10317e-51
5.51694e-52
8.4624e-54
3.3261e-96
3.35645e-93
1.69841e-90
5.77492e-88
1.4902e-85
3.12396e-83
5.56198e-81
8.68444e-79
1.21919e-76
1.57089e-74
1.89092e-72
2.18725e-70
2.50548e-68
3.17842e-65
4.89872e-63
3.89594e-61
3.15723e-59
3.19384e-55
2.58121e-53
3.89149e-55
3.37068e-54
2.73489e-54
6.55523e-56
3.59233e-103
5.21756e-100
3.79535e-97
1.85481e-94
6.87963e-92
2.07322e-89
5.30696e-87
1.19154e-84
2.40602e-82
4.46045e-80
7.72852e-78
1.27176e-75
2.03053e-73
3.20411e-71
4.71711e-68
9.8257e-66
8.28503e-64
1.01319e-60
7.59393e-58
2.47488e-56
8.90806e-57
4.3129e-57
9.46637e-58
6.57963e-112
1.65505e-108
2.06989e-105
1.73825e-102
1.10863e-99
5.74812e-97
2.53217e-94
9.78396e-92
3.39937e-89
1.08422e-86
3.23218e-84
9.15509e-82
2.50615e-79
6.7989e-77
1.8576e-74
8.85839e-71
2.75885e-68
9.55847e-68
1.86842e-61
3.97455e-59
3.90471e-59
2.54102e-59
5.31441e-60
3.78317e-125
3.1937e-121
1.28755e-117
3.50132e-114
7.28729e-111
1.23511e-107
1.77186e-104
2.21501e-101
2.47227e-98
2.51718e-95
2.38404e-92
2.13855e-89
1.84764e-86
1.56953e-83
1.34142e-80
1.15836e-77
8.43029e-73
2.06753e-74
2.54939e-65
3.16279e-62
9.01193e-62
3.893e-60
3.12403e-61
4.9694e-11
2.35322e-11
6.37877e-12
9.12859e-13
1.58907e-11
8.62006e-12
2.40503e-12
2.96837e-13
1.992e-12
1.23996e-12
3.84216e-13
4.67992e-14
2.86339e-13
1.70569e-13
4.39081e-14
5.94875e-15
5.49481e-14
2.576e-14
5.56414e-15
7.70475e-16
1.01674e-14
4.18188e-15
7.88763e-16
1.02996e-16
1.87552e-15
7.26627e-16
1.21872e-16
1.4383e-17
3.66369e-16
1.34172e-16
1.99333e-17
2.10365e-18
7.52964e-17
2.58903e-17
3.39511e-18
3.19526e-19
1.60894e-17
5.14681e-18
5.92822e-19
4.97349e-20
3.49748e-18
1.03185e-18
1.03952e-19
7.78335e-21
8.58826e-19
2.03118e-19
1.72908e-20
1.18898e-21
2.15613e-19
3.7555e-20
2.6958e-21
1.70992e-22
4.97339e-20
6.2973e-21
3.83142e-22
2.22651e-23
1.07632e-20
9.42153e-22
4.80173e-23
2.52804e-24
2.14412e-21
1.17255e-22
5.01356e-24
2.39516e-25
2.69956e-22
1.00793e-23
3.92251e-25
1.77929e-26
1.79217e-23
5.6699e-25
2.21875e-26
1.02183e-27
7.94131e-25
2.59087e-26
1.02898e-27
4.92685e-29
3.67782e-26
1.21378e-27
4.77912e-29
2.40991e-30
1.47093e-27
5.78044e-29
2.3619e-30
1.10264e-31
6.95546e-29
2.81973e-30
1.18852e-31
4.85555e-33
3.85675e-30
1.51434e-31
6.00004e-33
1.89821e-34
1.7569e-31
7.14862e-33
2.69433e-34
6.42538e-36
6.79306e-33
2.89187e-34
1.12784e-35
2.71145e-37
2.87176e-34
1.05726e-35
4.35509e-37
1.13929e-38
1.08318e-35
3.74581e-37
1.52468e-38
4.40472e-40
3.52651e-37
1.15652e-38
4.82393e-40
1.54346e-41
9.55643e-39
3.22187e-40
1.38318e-41
4.82756e-43
2.31959e-40
8.08883e-42
3.59208e-43
1.37807e-44
5.05712e-42
1.83152e-43
8.4698e-45
3.27835e-46
9.97716e-44
3.76212e-45
1.78297e-46
6.91582e-48
1.72576e-45
7.12742e-47
3.2741e-48
1.32955e-49
2.5259e-47
1.13461e-48
5.45847e-50
2.3407e-51
3.29666e-49
1.6107e-50
8.31891e-52
3.7966e-53
3.90013e-51
2.1061e-52
1.1672e-53
5.71326e-55
4.2521e-53
2.52333e-54
1.51899e-55
8.03927e-57
4.32664e-55
2.81977e-56
1.84968e-57
1.06672e-58
4.28983e-57
2.96847e-58
2.12326e-59
1.34587e-60
4.0457e-59
2.96025e-60
2.30861e-61
1.62954e-62
3.8567e-61
2.89915e-62
2.50243e-63
2.35051e-64
2.51582e-62
2.12509e-63
1.82519e-64
1.42108e-65
1.63265e-13
3.22975e-15
9.07621e-17
3.1183e-18
9.15805e-20
2.4779e-21
6.17786e-23
1.40489e-24
2.88309e-26
5.28099e-28
8.52191e-30
1.19208e-31
1.41482e-33
1.3812e-35
1.06045e-37
5.92218e-40
2.04009e-42
3.52666e-45
2.6648e-46
4.58574e-14
8.77232e-16
3.12621e-17
1.3087e-18
4.62866e-20
1.45066e-21
4.02326e-23
9.94033e-25
2.18817e-26
4.27534e-28
7.36212e-30
1.10574e-31
1.42772e-33
1.55676e-35
1.39103e-37
9.76923e-40
5.0432e-42
1.68292e-44
4.22429e-46
6.89522e-15
1.40737e-16
5.69554e-18
2.55285e-19
9.56978e-21
3.18191e-22
9.34686e-24
2.43056e-25
5.59446e-27
1.13666e-28
2.02721e-30
3.14592e-32
4.19392e-34
4.69662e-36
4.31666e-38
3.12933e-40
1.67819e-42
5.85043e-45
7.51761e-47
8.83771e-16
1.9696e-17
8.54625e-19
3.88919e-20
1.48125e-21
5.00209e-23
1.49417e-24
3.95103e-26
9.23817e-28
1.90361e-29
3.43674e-31
5.38811e-33
7.24272e-35
8.19722e-37
7.60992e-39
5.57184e-41
3.01955e-43
1.06822e-45
1.10803e-47
1.12428e-16
2.64298e-18
1.21381e-19
5.61711e-21
2.182e-22
7.48599e-24
2.26625e-25
6.06018e-27
1.43021e-28
2.96977e-30
5.39581e-32
8.50545e-34
1.14886e-35
1.30638e-37
1.21887e-39
8.97659e-42
4.90028e-44
1.75425e-46
1.4039e-48
1.44603e-17
3.39633e-19
1.59658e-20
7.41875e-22
2.91165e-23
1.00797e-24
3.07615e-26
8.28233e-28
1.9655e-29
4.09904e-31
7.47253e-33
1.18099e-34
1.59877e-36
1.82204e-38
1.70451e-40
1.25981e-42
6.9121e-45
2.49683e-47
1.55981e-49
1.91602e-18
4.30432e-20
2.00688e-21
9.20286e-23
3.59835e-24
1.24321e-25
3.79088e-27
1.02023e-28
2.42001e-30
5.04345e-32
9.18543e-34
1.45008e-35
1.96088e-37
2.23285e-39
2.08828e-41
1.54451e-43
8.49163e-46
3.08334e-48
1.53926e-50
2.63064e-19
5.47046e-21
2.46318e-22
1.09496e-23
4.20222e-25
1.4316e-26
4.31849e-28
1.15212e-29
2.7126e-31
5.61604e-33
1.01671e-34
1.5963e-36
2.148e-38
2.43554e-40
2.27013e-42
1.67516e-44
9.20163e-47
3.34702e-49
1.36152e-51
3.72209e-20
7.00362e-22
2.98074e-23
1.2628e-24
4.68725e-26
1.55555e-27
4.59522e-29
1.20499e-30
2.7959e-32
5.7155e-34
1.0232e-35
1.59057e-37
2.12152e-39
2.3871e-41
2.21057e-43
1.62281e-45
8.88162e-48
3.22663e-50
1.08705e-52
5.35941e-21
8.99722e-23
3.56165e-24
1.41631e-25
5.01488e-27
1.60247e-28
4.5905e-30
1.17343e-31
2.66455e-33
5.34669e-35
9.41796e-37
1.44336e-38
1.90127e-40
2.1161e-42
1.94141e-44
1.41422e-46
7.69334e-49
2.78451e-51
7.8784e-54
7.6883e-22
1.14572e-23
4.17469e-25
1.53883e-26
5.13626e-28
1.56403e-29
4.30644e-31
1.06511e-32
2.3521e-34
4.60845e-36
7.9517e-38
1.19693e-39
1.55211e-41
1.70409e-43
1.54519e-45
1.11454e-47
6.01487e-50
2.16465e-52
5.20804e-55
1.06362e-22
1.41579e-24
4.72652e-26
1.60107e-27
4.99363e-29
1.43752e-30
3.77796e-32
8.98716e-34
1.92043e-35
3.65853e-37
6.16198e-39
9.08333e-41
1.15669e-42
1.25015e-44
1.11838e-46
7.97544e-49
4.26404e-51
1.52377e-53
3.15594e-56
1.36246e-23
1.64881e-25
5.04658e-27
1.56535e-28
4.54222e-30
1.23067e-31
3.07439e-33
7.00844e-35
1.4446e-36
2.66881e-38
4.37809e-40
6.30868e-42
7.87735e-44
8.37081e-46
7.38063e-48
5.19917e-50
2.75181e-52
9.75742e-55
1.76883e-57
1.54574e-24
1.75062e-26
4.93551e-28
1.40456e-29
3.79482e-31
9.67646e-33
2.29652e-34
5.013e-36
9.95924e-38
1.78294e-39
2.84696e-41
4.00812e-43
4.90547e-45
5.1237e-47
4.45162e-49
3.09725e-51
1.6227e-53
5.70792e-56
1.00446e-58
1.48072e-25
1.64051e-27
4.29364e-29
1.12944e-30
2.85809e-32
6.88921e-34
1.55822e-35
3.26431e-37
6.26073e-39
1.08743e-40
1.69176e-42
2.32889e-44
2.79567e-46
2.87194e-48
2.46018e-50
1.69152e-52
8.77672e-55
3.0639e-57
5.36946e-60
1.11877e-26
1.31849e-28
3.24216e-30
7.98352e-32
1.91188e-33
4.39189e-35
9.52621e-37
1.92436e-38
3.57614e-40
6.04375e-42
9.18207e-44
1.23831e-45
1.46039e-47
1.47758e-49
1.24951e-51
8.49926e-54
4.37176e-56
1.51592e-58
2.64329e-61
6.19352e-28
8.91032e-30
2.09122e-31
4.90474e-33
1.1265e-34
2.49206e-36
5.22612e-38
1.02449e-39
1.85399e-41
3.06097e-43
4.55629e-45
6.03619e-47
7.00979e-49
6.99922e-51
5.85314e-53
3.94479e-55
2.01419e-57
6.9455e-60
1.2053e-62
2.3317e-29
5.03651e-31
1.14743e-32
2.61446e-34
5.84092e-36
1.25807e-37
2.57326e-39
4.92944e-41
8.73591e-43
1.41552e-44
2.07226e-46
2.70554e-48
3.10235e-50
3.06423e-52
2.53926e-54
1.6987e-56
8.62335e-59
2.96106e-61
5.11873e-64
1.1212e-30
2.47475e-32
5.49823e-34
1.22034e-35
2.67293e-37
5.66691e-39
1.14112e-40
2.15087e-42
3.7541e-44
5.99855e-46
8.67141e-48
1.11955e-49
1.27133e-51
1.24534e-53
1.0249e-55
6.81881e-58
3.44729e-60
1.18044e-62
2.03465e-65
5.97676e-32
1.21134e-33
2.52669e-35
5.28081e-37
1.11922e-38
2.32552e-40
4.58584e-42
8.54367e-44
1.47765e-45
2.34051e-47
3.35423e-49
4.29726e-51
4.84739e-53
4.72123e-55
3.8676e-57
2.56412e-59
1.29317e-61
4.42228e-64
7.6067e-67
2.98483e-33
5.84345e-35
1.16359e-36
2.32753e-38
4.69329e-40
9.26404e-42
1.74083e-43
3.17609e-45
5.41089e-47
8.44754e-49
1.20468e-50
1.5374e-52
1.7285e-54
1.67818e-56
1.37145e-58
9.07788e-61
4.57484e-63
1.56459e-65
2.68758e-68
1.35842e-34
2.66835e-36
5.15659e-38
9.96491e-40
1.93923e-41
3.69742e-43
6.7249e-45
1.17956e-46
1.93402e-48
2.91537e-50
4.11261e-52
5.20085e-54
5.80221e-56
5.6173e-58
4.59072e-60
3.04009e-62
1.53356e-64
5.25266e-67
9.01455e-70
6.24539e-36
1.11639e-37
2.17401e-39
4.0852e-41
7.73512e-43
1.43613e-44
2.54621e-46
4.35149e-48
6.9621e-50
1.02626e-51
1.40708e-53
1.73453e-55
1.89227e-57
1.81381e-59
1.47743e-61
9.76243e-64
4.92011e-66
1.6859e-68
2.88801e-71
2.67718e-37
4.60616e-39
8.52942e-41
1.60057e-42
2.96713e-44
5.3923e-46
9.36174e-48
1.5685e-49
2.46296e-51
3.56793e-53
4.80832e-55
5.83695e-57
6.28236e-59
5.93326e-61
4.76575e-63
3.11551e-65
1.55859e-67
5.3193e-70
9.08125e-73
1.05061e-38
1.79854e-40
3.17667e-42
5.94339e-44
1.09182e-45
1.95412e-47
3.33966e-49
5.50848e-51
8.52009e-53
1.2168e-54
1.61893e-56
1.94268e-58
2.06989e-60
1.93714e-62
1.54413e-64
1.0037e-66
5.00236e-69
1.70457e-71
2.90298e-74
3.80077e-40
6.52305e-42
1.14751e-43
2.10661e-45
3.82839e-47
6.821e-49
1.15374e-50
1.88228e-52
2.87948e-54
4.06867e-56
5.35911e-58
6.372e-60
6.73457e-62
6.26003e-64
4.96312e-66
3.21314e-68
1.59732e-70
5.4388e-73
9.23885e-76
1.25502e-41
2.19764e-43
3.90206e-45
7.19406e-47
1.28676e-48
2.28514e-50
3.85498e-52
6.25013e-54
9.49547e-56
1.33219e-57
1.74254e-59
2.05839e-61
2.16274e-63
2.00018e-65
1.57931e-67
1.01935e-69
5.05793e-72
1.72163e-74
2.91635e-77
3.77637e-43
6.87705e-45
1.24915e-46
2.3256e-48
4.18467e-50
7.3278e-52
1.24489e-53
2.01517e-55
3.05277e-57
4.26757e-59
5.56027e-61
6.54226e-63
6.84867e-65
6.31335e-67
4.97167e-69
3.2027e-71
1.58735e-73
5.40367e-76
9.12634e-79
1.04127e-44
2.00128e-46
3.76863e-48
7.11728e-50
1.29836e-51
2.28915e-53
3.87298e-55
6.30716e-57
9.56494e-59
1.33688e-60
1.74016e-62
2.04463e-64
2.13707e-66
1.9671e-68
1.54711e-70
9.9575e-73
4.93315e-75
1.68023e-77
2.82887e-80
2.64311e-46
5.42029e-48
1.07347e-49
2.0648e-51
3.84595e-53
6.87551e-55
1.16494e-56
1.91669e-58
2.92082e-60
4.09515e-62
5.34053e-64
6.28148e-66
6.56878e-68
6.04752e-70
4.75676e-72
3.06189e-74
1.51731e-76
5.17259e-79
8.68006e-82
6.23478e-48
1.37724e-49
2.87487e-51
5.69091e-53
1.08931e-54
1.9857e-56
3.40148e-58
5.65632e-60
8.69682e-62
1.22697e-63
1.60747e-65
1.89706e-67
1.9887e-69
1.8342e-71
1.44467e-73
9.30914e-76
4.61722e-78
1.57596e-80
2.63552e-83
1.53982e-49
3.27521e-51
7.24926e-53
1.50407e-54
2.95663e-56
5.52349e-58
9.64324e-60
1.6233e-61
2.52708e-63
3.59809e-65
4.74763e-67
5.63401e-69
5.93154e-71
5.48884e-73
4.3342e-75
2.7983e-77
1.38996e-79
4.75145e-82
7.91764e-85
3.63565e-51
7.35322e-53
1.73495e-54
3.80625e-56
7.71143e-58
1.48299e-59
2.65e-61
4.54063e-63
7.17461e-65
1.03372e-66
1.37697e-68
1.64644e-70
1.74379e-72
1.62123e-74
1.28485e-76
8.31827e-79
4.14012e-81
1.41775e-83
2.35377e-86
7.40329e-53
1.59425e-54
3.96815e-56
9.19245e-58
1.93905e-59
3.85323e-61
7.07437e-63
1.24004e-64
1.99325e-66
2.91332e-68
3.92609e-70
4.7387e-72
5.0568e-74
4.72949e-76
3.76558e-78
2.44638e-80
1.22062e-82
4.18812e-85
6.92671e-88
1.32874e-54
3.2521e-56
8.72247e-58
2.13137e-59
4.71207e-61
9.71753e-63
1.83978e-64
3.31253e-66
5.42871e-68
8.06691e-70
1.10196e-71
1.34481e-73
1.44792e-75
1.36383e-77
1.09188e-79
7.12294e-82
3.56428e-84
1.22555e-86
2.01901e-89
2.22898e-56
6.44539e-58
1.84763e-59
4.76767e-61
1.1115e-62
2.38649e-64
4.69733e-66
8.66692e-68
1.45247e-69
2.19862e-71
3.04954e-73
3.76837e-75
4.0986e-77
3.89187e-79
3.13544e-81
2.05505e-83
1.03169e-85
3.55533e-88
5.83371e-91
3.52616e-58
1.23313e-59
3.79232e-61
1.03602e-62
2.55456e-64
5.72779e-66
1.17578e-67
2.22849e-69
3.82644e-71
5.91027e-73
8.33588e-75
1.04433e-76
1.14859e-78
1.10043e-80
8.9272e-83
5.88141e-85
2.9631e-87
1.02348e-89
1.67252e-92
5.85341e-60
2.27888e-61
7.56099e-63
2.2019e-64
5.73786e-66
1.35642e-67
2.89086e-69
5.64708e-71
9.95092e-73
1.57057e-74
2.25523e-76
2.86741e-78
3.19181e-80
3.08748e-82
2.52349e-84
1.67177e-86
8.45432e-89
2.92706e-91
4.7634e-94
9.57819e-62
4.0997e-63
1.47516e-64
4.59024e-66
1.27317e-67
3.17028e-69
7.01001e-71
1.41456e-72
2.56147e-74
4.13578e-76
6.05195e-78
7.81553e-80
8.81075e-82
8.60961e-84
7.09254e-86
4.72614e-88
2.39949e-90
8.32692e-93
1.34942e-95
1.51955e-63
7.22479e-65
2.83332e-66
9.52419e-68
2.80501e-69
7.3155e-71
1.68374e-72
3.51397e-74
6.54518e-76
1.08199e-77
1.61462e-79
2.11909e-81
2.42055e-83
2.39028e-85
1.98522e-87
1.33083e-89
6.78404e-92
2.35964e-94
3.70673e-97
2.33069e-65
1.24572e-66
5.40471e-68
1.94675e-69
6.09673e-71
1.6743e-72
4.02188e-74
8.68819e-76
1.66569e-77
2.82075e-79
4.29444e-81
5.72996e-83
6.63359e-85
6.62123e-87
5.54502e-89
3.73999e-91
1.91427e-93
6.67282e-96
1.04143e-98
7.37731e-67
3.08494e-68
1.07932e-69
3.30547e-71
8.97449e-73
2.14774e-74
4.72964e-76
1.06061e-77
2.09791e-79
3.64648e-81
5.67318e-83
7.7063e-85
9.05315e-87
9.14333e-89
7.72828e-91
5.24894e-93
2.6997e-95
9.45247e-98
1.04143e-98
)
;

boundaryField
{
    leftWall
    {
        type            zeroGradient;
    }
    rightWall
    {
        type            zeroGradient;
    }
    lowerWall
    {
        type            zeroGradient;
    }
    atmosphere
    {
        type            inletOutlet;
        inletValue      uniform 0;
        value           nonuniform List<scalar> 
46
(
0
0
0
0
0
0
0
0
0
0
0
0
0
0
0
0
0
0
0
0
9.01193e-62
3.893e-60
3.12403e-61
2.51582e-62
2.12509e-63
1.82519e-64
1.42108e-65
7.37731e-67
3.08494e-68
1.07932e-69
3.30547e-71
8.97449e-73
2.14774e-74
4.72964e-76
1.06061e-77
2.09791e-79
3.64648e-81
5.67318e-83
7.7063e-85
9.05315e-87
9.14333e-89
7.72828e-91
5.24894e-93
2.6997e-95
9.45247e-98
1.04143e-98
)
;
    }
    defaultFaces
    {
        type            empty;
    }
}


// ************************************************************************* //
