/*--------------------------------*- C++ -*----------------------------------*\
  =========                 |
  \\      /  F ield         | OpenFOAM: The Open Source CFD Toolbox
   \\    /   O peration     | Website:  https://openfoam.org
    \\  /    A nd           | Version:  13
     \\/     M anipulation  |
\*---------------------------------------------------------------------------*/
FoamFile
{
    format      ascii;
    class       surfaceScalarField;
    location    "0.05";
    object      alphaPhi.water;
}
// * * * * * * * * * * * * * * * * * * * * * * * * * * * * * * * * * * * * * //

dimensions      [0 3 -1 0 0 0 0];

internalField   nonuniform List<scalar> 
4432
(
2.95278e-06
-2.95278e-06
6.0635e-06
-3.11076e-06
9.21345e-06
-3.14994e-06
1.25042e-05
-3.29075e-06
1.60053e-05
-3.50116e-06
1.97984e-05
-3.79315e-06
2.39935e-05
-4.19502e-06
2.87461e-05
-4.75258e-06
3.42931e-05
-5.54697e-06
4.09863e-05
-6.69326e-06
4.9671e-05
-8.68463e-06
6.04678e-05
-1.07968e-05
7.559e-05
-1.51222e-05
6.4035e-05
-1.74938e-05
6.58475e-06
-4.62239e-06
1.77861e-06
3.41423e-07
4.64108e-07
2.88376e-07
7.63328e-08
1.45804e-07
8.58129e-09
2.7673e-08
7.71326e-10
3.03469e-09
9.49168e-11
2.8433e-10
3.11208e-11
2.72087e-11
1.38307e-12
2.94843e-06
-5.90122e-06
6.05177e-06
-6.21415e-06
9.19431e-06
-6.29251e-06
1.24752e-05
-6.57165e-06
1.59626e-05
-6.98861e-06
1.97362e-05
-7.56674e-06
2.39022e-05
-8.36092e-06
2.86103e-05
-9.4606e-06
3.40746e-05
-1.10113e-05
4.06645e-05
-1.32831e-05
4.88663e-05
-1.68864e-05
5.91758e-05
-2.11063e-05
6.81321e-05
-2.95361e-05
3.48434e-05
-2.82782e-05
3.55647e-06
-5.77556e-06
1.35469e-06
-3.1659e-07
3.66636e-07
2.88359e-07
7.68895e-08
1.84814e-07
9.85402e-09
4.9165e-08
9.1916e-10
6.14749e-09
9.223e-11
6.14238e-10
2.02467e-11
6.08259e-11
3.38195e-12
2.93094e-06
-8.83214e-06
6.01169e-06
-9.29491e-06
9.13045e-06
-9.41128e-06
1.23829e-05
-9.82404e-06
1.5834e-05
-1.04397e-05
1.95587e-05
-1.12915e-05
2.36556e-05
-1.24577e-05
2.82597e-05
-1.40647e-05
3.3557e-05
-1.63086e-05
3.98651e-05
-1.95913e-05
4.74933e-05
-2.45146e-05
5.7358e-05
-3.09709e-05
5.68875e-05
-4.35049e-05
9.87731e-06
-2.71638e-05
1.81447e-06
-3.6461e-06
5.37099e-07
-1.77037e-07
1.0937e-07
1.12522e-07
9.28513e-09
5.69509e-08
0
1.3671e-08
0
1.58979e-09
0
1.89616e-10
7.17028e-12
2.33724e-11
2.04118e-12
2.90442e-06
-1.17365e-05
5.95181e-06
-1.23423e-05
9.03517e-06
-1.24947e-05
1.22454e-05
-1.30342e-05
1.56429e-05
-1.38372e-05
1.92962e-05
-1.49448e-05
2.32925e-05
-1.64541e-05
2.77473e-05
-1.85196e-05
3.28126e-05
-2.13738e-05
3.87267e-05
-2.55054e-05
4.56725e-05
-3.14604e-05
5.43437e-05
-3.96421e-05
4.35698e-05
-5.34881e-05
3.87446e-06
-2.18867e-05
9.80847e-07
-2.3719e-06
2.06909e-07
3.95335e-08
4.07133e-08
6.73478e-08
6.36741e-09
1.87118e-08
5.43446e-10
2.87785e-09
2.45148e-11
4.25217e-10
0
5.93728e-11
3.0855e-12
1.01632e-11
1.2181e-12
2.86927e-06
-1.46058e-05
5.87297e-06
-1.53459e-05
8.90996e-06
-1.55317e-05
1.20652e-05
-1.61894e-05
1.53934e-05
-1.71654e-05
1.89549e-05
-1.85063e-05
2.2824e-05
-2.03231e-05
2.70934e-05
-2.27891e-05
3.18763e-05
-2.61566e-05
3.73301e-05
-3.09593e-05
4.35101e-05
-3.76403e-05
5.08568e-05
-4.69888e-05
3.22651e-05
-5.88565e-05
2.3412e-06
-1.69509e-05
3.72547e-07
-1.35551e-06
6.08551e-08
8.93173e-08
1.06036e-08
3.6257e-08
2.1346e-09
7.12704e-09
2.6552e-10
1.12871e-09
1.67457e-11
1.68764e-10
0
2.46422e-11
1.31055e-12
4.39615e-12
6.97095e-13
2.82593e-06
-1.74317e-05
5.77638e-06
-1.82963e-05
8.75688e-06
-1.85122e-05
1.18455e-05
-1.9278e-05
1.50905e-05
-2.04105e-05
1.85433e-05
-2.19591e-05
2.22638e-05
-2.40435e-05
2.63216e-05
-2.68469e-05
3.07884e-05
-3.06235e-05
3.57534e-05
-3.59243e-05
4.11414e-05
-4.30283e-05
4.72205e-05
-5.30679e-05
2.35537e-05
-6.08633e-05
1.55761e-06
-1.26924e-05
1.41232e-07
-6.68064e-07
1.76053e-08
8.71523e-08
3.42381e-09
1.78229e-08
7.01806e-10
2.63756e-09
1.0075e-10
4.03969e-10
7.58925e-12
6.28933e-11
9.29388e-14
9.75773e-12
5.62665e-13
1.82486e-12
3.69808e-13
2.77523e-06
-2.0207e-05
5.66374e-06
-2.11848e-05
8.57887e-06
-2.14273e-05
1.15909e-05
-2.22901e-05
1.47413e-05
-2.35608e-05
1.8072e-05
-2.52898e-05
2.16286e-05
-2.76001e-05
2.54581e-05
-3.06765e-05
2.95948e-05
-3.47603e-05
3.40689e-05
-4.03983e-05
3.8671e-05
-4.76305e-05
4.35708e-05
-5.79677e-05
1.70719e-05
-6.09254e-05
8.87559e-07
-9.44747e-06
4.45524e-08
-1.81574e-07
4.75387e-09
7.0823e-08
1.19563e-09
9.71897e-09
2.41471e-10
1.08956e-09
3.59322e-11
1.52028e-10
3.20731e-12
2.38585e-11
1.26016e-13
3.93624e-12
2.16465e-13
7.59801e-13
1.88738e-13
2.7185e-06
-2.29255e-05
5.53655e-06
-2.40029e-05
8.3788e-06
-2.42696e-05
1.13063e-05
-2.52176e-05
1.43532e-05
-2.66078e-05
1.75524e-05
-2.8489e-05
2.0936e-05
-3.09837e-05
2.45308e-05
-3.42713e-05
2.8344e-05
-3.85736e-05
3.2376e-05
-4.44302e-05
3.62051e-05
-5.14597e-05
4.00099e-05
-6.17724e-05
1.24774e-05
-6.01755e-05
3.95773e-07
-7.35395e-06
1.23132e-08
3.00529e-08
1.25628e-09
5.46147e-08
4.07884e-10
6.10896e-09
8.19056e-11
5.57865e-10
1.25231e-11
6.55062e-11
1.32151e-12
9.86223e-12
7.8383e-14
1.71641e-12
5.76669e-14
3.5602e-13
1.06559e-13
5.3304e-30
-4.14356e-29
7.96202e-32
-9.08831e-31
1.36073e-32
-2.09639e-32
2.47828e-34
-3.32351e-33
1.91552e-36
-1.54184e-35
1.55688e-38
1.21146e-38
3.7716e-40
4.02129e-40
7.66872e-42
1.27433e-41
1.42818e-43
3.20121e-43
2.36487e-45
6.883e-45
3.42949e-47
1.29143e-46
4.2746e-49
2.14141e-48
4.47112e-51
3.08417e-50
3.79824e-53
3.81917e-52
2.53032e-55
3.96225e-54
1.21632e-57
3.37543e-56
5.0403e-60
2.22236e-58
1.31425e-60
1.05956e-60
2.65361e-63
5.64877e-28
-2.73401e-27
1.03775e-29
-1.65249e-28
1.37014e-30
-3.23141e-30
2.69272e-32
-3.47778e-31
1.95768e-34
-1.65365e-33
2.03579e-36
5.72939e-36
5.45476e-38
2.07099e-37
1.05242e-39
6.6896e-39
2.00455e-41
1.73404e-40
3.40606e-43
3.88536e-42
5.13384e-45
7.60643e-44
6.68663e-47
1.30737e-45
7.38091e-49
1.95289e-47
6.67902e-51
2.51486e-49
4.79945e-53
2.71216e-51
2.53288e-55
2.39742e-53
8.87876e-58
1.60157e-55
2.34786e-60
7.38129e-58
9.55051e-61
3.11998e-26
-2.03023e-25
5.45435e-28
-1.25516e-26
6.80835e-29
-2.43749e-28
1.4697e-30
-1.80408e-29
1.09347e-32
-8.41945e-32
1.27812e-34
5.24842e-34
3.18272e-36
1.9667e-35
6.54958e-38
6.24555e-37
1.26705e-39
1.66181e-38
2.18485e-41
3.75021e-40
3.32139e-43
7.3954e-42
4.36258e-45
1.27745e-43
4.87386e-47
1.91133e-45
4.4591e-49
2.4598e-47
3.23368e-51
2.62417e-49
1.88781e-53
2.26117e-51
7.56614e-56
1.48825e-53
2.00836e-58
6.71694e-56
8.46961e-59
1.16151e-24
-9.13304e-24
2.05223e-26
-5.79426e-25
2.16071e-27
-1.10568e-26
5.1041e-29
-5.79288e-28
3.74141e-31
-2.36739e-30
5.58748e-33
2.81021e-32
1.35041e-34
1.16187e-33
2.92185e-36
3.74886e-35
5.71689e-38
9.99295e-37
9.95855e-40
2.2674e-38
1.5255e-41
4.47662e-40
2.01161e-43
7.71796e-42
2.25041e-45
1.14537e-43
2.19653e-47
1.45154e-45
1.72918e-49
1.53936e-47
1.02944e-51
1.31807e-49
4.16254e-54
8.58897e-52
1.15492e-56
3.81646e-54
4.72009e-57
3.24053e-23
-2.82687e-22
5.95433e-25
-1.8347e-23
4.65643e-26
-3.44003e-25
1.21819e-27
-1.2416e-26
8.73311e-30
-3.34121e-29
1.87121e-31
1.05245e-30
4.56683e-33
4.93412e-32
1.00464e-34
1.61914e-33
1.98145e-36
4.30216e-35
3.45897e-38
9.72531e-37
5.28965e-40
1.90467e-38
7.30299e-42
3.24129e-40
8.64997e-44
4.78487e-42
8.53085e-46
6.04022e-44
6.75054e-48
6.37108e-46
4.03507e-50
5.4165e-48
1.63465e-52
3.49604e-50
4.71966e-55
1.53383e-52
1.86527e-55
7.05908e-22
-6.65318e-21
1.37743e-23
-4.49752e-22
6.4659e-25
-7.90897e-24
1.95776e-26
-1.82669e-25
1.85693e-28
2.42712e-29
5.04938e-30
3.74101e-29
1.23777e-31
1.57762e-30
2.75176e-33
4.86562e-32
5.4219e-35
1.2458e-33
9.70696e-37
2.73876e-35
1.55696e-38
5.25152e-37
2.16659e-40
8.8173e-39
2.57173e-42
1.28593e-40
2.54091e-44
1.60687e-42
2.01329e-46
1.68565e-44
1.20401e-48
1.43957e-46
4.87635e-51
9.53568e-49
1.46086e-53
4.44168e-51
5.54538e-54
1.42458e-20
-3.68659e-19
2.65133e-22
-4.56569e-20
5.86602e-24
-2.73607e-22
1.64077e-25
-2.15331e-24
4.14178e-27
8.80736e-27
1.06119e-28
1.0379e-27
2.53129e-30
4.04671e-29
5.46379e-32
1.18597e-30
1.1044e-33
2.92277e-32
1.99888e-35
6.2584e-34
3.17659e-37
1.17389e-35
4.38431e-39
1.9337e-37
5.17423e-41
2.75602e-39
5.1092e-43
3.34688e-41
4.08911e-45
3.38227e-43
2.52531e-47
2.7454e-45
1.09384e-49
1.69184e-47
3.54545e-52
7.3292e-50
1.32265e-52
5.13602e-19
-1.11686e-17
4.20604e-21
-3.16277e-19
8.28858e-23
-5.9844e-21
2.30349e-24
-5.27902e-23
6.2178e-26
2.80105e-25
1.59277e-27
1.89549e-26
3.69209e-29
6.93374e-28
7.95382e-31
1.99379e-29
1.59871e-32
4.87582e-31
2.84065e-34
1.03885e-32
4.44095e-36
1.93745e-34
6.00566e-38
3.1524e-36
6.90632e-40
4.4316e-38
6.5884e-42
5.29429e-40
5.02831e-44
5.24265e-42
2.90039e-46
4.14153e-44
1.17545e-48
2.45493e-46
6.69122e-51
1.01297e-48
2.12965e-51
5.56622e-06
-2.84917e-05
1.13059e-05
-2.97425e-05
1.70832e-05
-3.00469e-05
2.30034e-05
-3.11377e-05
2.91163e-05
-3.27207e-05
3.54643e-05
-3.4837e-05
4.20789e-05
-3.75984e-05
4.89651e-05
-4.11575e-05
5.60966e-05
-4.57051e-05
6.32397e-05
-5.15733e-05
7.0511e-05
-5.8731e-05
7.67585e-05
-6.80199e-05
1.75265e-05
-5.56987e-05
3.17304e-07
-3.94423e-06
0
1.3783e-07
0
2.64693e-08
9.88085e-11
2.11414e-09
2.68461e-11
1.54842e-10
4.08017e-12
1.21856e-11
4.41774e-13
1.40645e-12
1.62372e-14
2.41542e-13
1.98429e-14
6.26802e-14
1.6326e-14
2.04131e-14
5.22578e-06
-3.37175e-05
1.05687e-05
-3.50854e-05
1.59331e-05
-3.54113e-05
2.13866e-05
-3.65913e-05
2.69514e-05
-3.82855e-05
3.26376e-05
-4.05231e-05
3.84358e-05
-4.33966e-05
4.43026e-05
-4.70243e-05
5.01429e-05
-5.15454e-05
5.57425e-05
-5.71729e-05
6.08705e-05
-6.38589e-05
6.48986e-05
-7.20481e-05
8.17017e-06
-4.95856e-05
7.10936e-08
-1.9717e-06
0
1.11913e-07
2.21641e-11
1.35496e-08
5.90612e-11
1.01409e-09
1.29287e-11
7.58053e-11
2.07779e-12
6.14396e-12
2.9951e-13
5.96423e-13
4.0188e-14
8.56878e-14
9.79355e-15
1.63069e-14
3.09715e-15
2.64448e-15
4.85273e-06
-3.85703e-05
9.7691e-06
-4.00017e-05
1.46936e-05
-4.03358e-05
1.96604e-05
-4.1558e-05
2.46692e-05
-4.32944e-05
2.97072e-05
-4.55612e-05
3.47395e-05
-4.84289e-05
3.96967e-05
-5.19815e-05
4.446e-05
-5.63088e-05
4.88272e-05
-6.15401e-05
5.25336e-05
-6.75653e-05
5.5182e-05
-7.46965e-05
3.39042e-06
-4.33536e-05
1.03029e-08
-1.00355e-06
0
7.947e-08
0
6.77632e-09
0
4.57092e-10
1.29095e-12
3.13788e-11
2.82839e-13
2.30695e-12
3.80799e-14
2.06287e-13
5.22129e-15
2.62807e-14
2.64531e-15
3.68591e-15
5.16652e-16
3.92504e-16
4.46065e-06
-4.30309e-05
8.93826e-06
-4.44794e-05
1.3414e-05
-4.48116e-05
1.78936e-05
-4.60377e-05
2.23611e-05
-4.77619e-05
2.67886e-05
-4.99888e-05
3.11278e-05
-5.2768e-05
3.53001e-05
-5.61537e-05
3.91873e-05
-6.01961e-05
4.26126e-05
-6.49653e-05
4.53613e-05
-7.0314e-05
4.71793e-05
-7.65145e-05
1.40164e-06
-3.7688e-05
0
-4.63506e-07
0
5.53318e-08
0
3.59393e-09
0
2.1017e-10
4.06199e-14
1.35016e-11
3.65193e-14
9.1676e-13
5.82664e-15
7.46125e-14
2.31739e-15
8.01025e-15
5.5204e-16
9.4256e-16
9.42825e-17
4.88192e-17
4.06197e-06
-4.70928e-05
8.1026e-06
-4.852e-05
1.21347e-05
-4.88437e-05
1.61417e-05
-5.00446e-05
2.0097e-05
-5.17171e-05
2.39649e-05
-5.38567e-05
2.76921e-05
-5.64951e-05
3.12012e-05
-5.96628e-05
3.43863e-05
-6.33812e-05
3.71026e-05
-6.76817e-05
3.91924e-05
-7.24038e-05
4.04959e-05
-7.78179e-05
4.86458e-07
-3.26659e-05
0
-1.53584e-07
0
3.67984e-08
0
1.95397e-09
0
1.01951e-10
0
5.91563e-12
0
3.75352e-13
5.34155e-16
2.85121e-14
7.1483e-16
2.5259e-15
1.11623e-16
2.40333e-16
2.0077e-17
7.4304e-18
3.66669e-06
-5.07595e-05
7.28248e-06
-5.21358e-05
1.08862e-05
-5.24474e-05
1.44442e-05
-5.36026e-05
1.79244e-05
-5.51973e-05
2.12879e-05
-5.72203e-05
2.44819e-05
-5.96891e-05
2.74357e-05
-6.26166e-05
3.00595e-05
-6.60051e-05
3.22394e-05
-6.98616e-05
3.38636e-05
-7.4028e-05
3.48314e-05
-7.87857e-05
2.78752e-07
-2.82702e-05
0
1.72209e-08
0
2.34925e-08
0
1.05946e-09
0
5.00194e-11
0
2.63549e-12
0
1.54038e-13
5.27182e-16
1.08053e-14
1.95917e-16
8.40531e-16
2.15587e-17
6.46579e-17
4.69155e-18
1.14007e-18
3.28239e-06
-5.40419e-05
6.4924e-06
-5.53458e-05
9.68913e-06
-5.56441e-05
1.28273e-05
-5.67407e-05
1.58724e-05
-5.82424e-05
1.87857e-05
-6.01336e-05
2.15178e-05
-6.24212e-05
2.40071e-05
-6.51059e-05
2.61798e-05
-6.81777e-05
2.79476e-05
-7.16294e-05
2.92325e-05
-7.53129e-05
2.9968e-05
-7.95211e-05
1.43199e-07
-2.44219e-05
0
9.56309e-08
0
1.50969e-08
0
5.94767e-10
0
2.55053e-11
0
1.21941e-12
1.85488e-16
6.5338e-14
3.83373e-16
4.04113e-15
5.37727e-17
2.82542e-16
4.40033e-18
1.82437e-17
1.16631e-18
1.75735e-19
2.91426e-06
-5.69562e-05
5.74168e-06
-5.81732e-05
8.55653e-06
-5.84589e-05
1.1306e-05
-5.94902e-05
1.39557e-05
-6.08922e-05
1.6469e-05
-6.26469e-05
1.88015e-05
-6.47537e-05
2.09007e-05
-6.72051e-05
2.27069e-05
-6.99839e-05
2.41523e-05
-7.30748e-05
2.51824e-05
-7.6343e-05
2.57503e-05
-8.00889e-05
6.7827e-08
-2.10478e-05
0
1.22175e-07
0
1.01433e-08
0
3.59965e-10
0
1.4065e-11
0
6.07741e-13
1.57057e-16
2.9477e-14
1.49246e-16
1.575e-15
1.43948e-17
9.52484e-17
9.64258e-19
5.38925e-18
3.03906e-19
2.72409e-20
2.56548e-06
-5.95217e-05
5.03535e-06
-6.06431e-05
7.49473e-06
-6.09183e-05
9.88667e-06
-6.18821e-05
1.21785e-05
-6.3184e-05
1.43367e-05
-6.48051e-05
1.63224e-05
-6.67394e-05
1.80917e-05
-6.89743e-05
1.95965e-05
-7.14888e-05
2.07848e-05
-7.42631e-05
2.16183e-05
-7.71765e-05
2.20613e-05
-8.05319e-05
2.39987e-08
-1.80869e-05
0
1.17371e-07
0
7.10839e-09
0
2.32816e-10
0
8.34591e-12
0
3.26488e-13
7.32862e-17
1.41967e-14
5.19853e-17
6.57128e-16
3.91728e-18
3.42762e-17
2.22402e-19
1.6846e-18
8.31377e-20
4.09786e-21
2.23751e-06
-6.17592e-05
4.37503e-06
-6.27806e-05
6.5051e-06
-6.30484e-05
8.56922e-06
-6.39462e-05
1.05374e-05
-6.51522e-05
1.23797e-05
-6.66474e-05
1.40629e-05
-6.84225e-05
1.55504e-05
-7.04618e-05
1.68041e-05
-7.27426e-05
1.77838e-05
-7.52427e-05
1.84626e-05
-7.78552e-05
1.88108e-05
-8.08802e-05
0
-1.54864e-05
0
9.94068e-08
0
4.9273e-09
0
1.50453e-10
0
4.99987e-12
0
1.79018e-13
3.13726e-17
7.01473e-15
1.8157e-17
2.88694e-16
1.09792e-18
1.29171e-17
5.35703e-20
5.49591e-19
2.35907e-20
5.34201e-22
1.9306e-06
-6.36898e-05
3.75991e-06
-6.46099e-05
5.58556e-06
-6.48741e-05
7.34932e-06
-6.571e-05
9.02427e-06
-6.68272e-05
1.05845e-05
-6.82076e-05
1.20016e-05
-6.98396e-05
1.32459e-05
-7.17061e-05
1.4287e-05
-7.37836e-05
1.50938e-05
-7.60495e-05
1.56493e-05
-7.84107e-05
1.59256e-05
-8.11564e-05
0
-1.32003e-05
0
7.84198e-08
0
3.21772e-09
0
9.16435e-11
0
2.8522e-12
0
9.46495e-14
3.54996e-17
3.37828e-15
6.407e-18
1.27091e-16
3.07041e-19
4.84813e-18
1.31079e-20
1.79182e-19
6.67613e-21
2.54978e-23
1.64407e-06
-6.53338e-05
3.18764e-06
-6.61534e-05
4.73184e-06
-6.64183e-05
6.22016e-06
-6.71983e-05
7.62866e-06
-6.82357e-05
8.9354e-06
-6.95144e-05
1.01167e-05
-7.10209e-05
1.11482e-05
-7.27375e-05
1.20056e-05
-7.46411e-05
1.26638e-05
-7.67076e-05
1.31168e-05
-7.88637e-05
1.3334e-05
-8.13735e-05
0
-1.11976e-05
0
5.76269e-08
0
2.11785e-09
0
6.26747e-11
0
1.86348e-12
0
5.53719e-14
3.0194e-17
1.58999e-15
2.17829e-18
5.40518e-17
8.3471e-20
1.75968e-18
3.10745e-21
5.62765e-20
1.80666e-21
0
1.3761e-06
-6.67098e-05
2.65424e-06
-6.74315e-05
3.93755e-06
-6.77015e-05
5.17188e-06
-6.84326e-05
6.33663e-06
-6.94004e-05
7.41338e-06
-7.0591e-05
8.38301e-06
-7.19904e-05
9.22653e-06
-7.35809e-05
9.92431e-06
-7.53387e-05
1.04545e-05
-7.72377e-05
1.08184e-05
-7.92273e-05
1.09571e-05
-8.15117e-05
0
-9.48147e-06
0
4.08404e-08
0
1.35251e-09
0
5.11885e-11
0
1.49321e-12
1.91941e-17
4.00926e-14
1.48771e-17
8.9584e-16
7.01042e-19
2.35887e-17
2.17964e-20
6.45677e-19
6.88423e-22
1.7285e-20
4.64287e-22
0
1.12487e-06
-6.78341e-05
2.1542e-06
-6.84602e-05
3.19373e-06
-6.87405e-05
4.19105e-06
-6.94292e-05
5.12985e-06
-7.03384e-05
5.99488e-06
-7.14553e-05
6.77093e-06
-7.27655e-05
7.44421e-06
-7.42532e-05
7.99978e-06
-7.58931e-05
8.43135e-06
-7.7668e-05
8.75645e-06
-7.9551e-05
8.70694e-06
-8.14595e-05
0
-7.89046e-06
0
3.06649e-08
4.28707e-12
1.1594e-09
1.32429e-13
5.07994e-11
9.16471e-16
1.49586e-12
5.1115e-18
3.71697e-14
6.56656e-18
7.09575e-16
2.31464e-19
1.26974e-17
5.526e-21
2.71468e-19
1.40776e-22
5.61692e-21
1.17475e-22
0
8.93568e-07
-6.87231e-05
1.68607e-06
-6.9248e-05
2.49745e-06
-6.95471e-05
3.27519e-06
-7.02018e-05
4.00693e-06
-7.10647e-05
4.6796e-06
-7.2122e-05
5.28047e-06
-7.33598e-05
5.79678e-06
-7.47621e-05
6.20655e-06
-7.62946e-05
6.50749e-06
-7.79593e-05
6.8061e-06
-7.98396e-05
6.08498e-06
-8.07203e-05
0
-6.20429e-06
1.09348e-10
2.0428e-08
1.28814e-11
1.14988e-09
3.90056e-13
5.89638e-11
5.70403e-15
1.75227e-12
1.52458e-18
3.99478e-14
3.23975e-18
6.32163e-16
8.93812e-20
7.98807e-18
1.46576e-21
1.24745e-19
2.70664e-23
1.84146e-21
2.7711e-23
0
6.74969e-07
-6.93633e-05
1.2615e-06
-6.97988e-05
1.8759e-06
-7.01248e-05
2.46163e-06
-7.07492e-05
3.01258e-06
-7.15749e-05
3.52126e-06
-7.25869e-05
3.98009e-06
-7.37711e-05
4.37573e-06
-7.51055e-05
4.67811e-06
-7.65393e-05
4.77506e-06
-7.79895e-05
4.61606e-06
-7.96129e-05
1.78843e-06
-7.7778e-05
-3.27647e-08
-7.92588e-06
0
1.70296e-09
0
7.7475e-10
3.25584e-13
5.50371e-11
0
2.0148e-12
2.17414e-18
3.79209e-14
1.40487e-18
4.96993e-16
2.081e-20
4.79522e-18
2.50993e-22
3.61431e-20
3.37326e-24
3.65378e-22
4.02075e-24
0
5.03383e-07
-6.96079e-05
9.21256e-07
-6.99527e-05
1.36321e-06
-7.02968e-05
1.79068e-06
-7.08967e-05
2.19302e-06
-7.16834e-05
2.56425e-06
-7.26464e-05
2.89899e-06
-7.37721e-05
3.18908e-06
-7.50347e-05
3.46605e-06
-7.64248e-05
3.59936e-06
-7.76781e-05
3.28278e-06
-7.88097e-05
3.9732e-06
-7.77564e-05
-2.39572e-08
-1.7714e-05
3.09984e-09
-5.45886e-08
2.54302e-10
3.10656e-09
9.39538e-12
2.45342e-10
9.38964e-14
1.09161e-11
2.7238e-16
1.29833e-13
4.79085e-19
7.51996e-16
2.94122e-21
4.55344e-18
1.82894e-23
7.98272e-21
1.38956e-25
4.03041e-23
3.12596e-25
0
2.71225e-07
-5.27504e-05
4.93707e-07
-5.28377e-05
7.34762e-07
-5.28468e-05
9.60217e-07
-5.29029e-05
1.16365e-06
-5.29564e-05
1.33533e-06
-5.29914e-05
1.45893e-06
-5.29711e-05
1.53296e-06
-5.28359e-05
1.56158e-06
-5.27408e-05
2.2082e-06
-5.14685e-05
3.18236e-06
-4.9836e-05
1.05932e-05
-3.51416e-05
0
-1.4225e-05
7.23663e-08
-6.93896e-07
6.26671e-09
6.90545e-08
2.99294e-10
6.05392e-09
4.54818e-12
2.71755e-10
1.48718e-14
4.50356e-12
4.41198e-26
1.56249e-14
-5.40194e-22
4.46466e-18
-1.14486e-24
5.39163e-22
-1.11395e-26
2.37812e-24
1.82092e-26
-1.81683e-28
-1.14832e-07
-8.82657e-26
-2.92207e-07
-2.32764e-23
-4.27038e-07
-1.93e-21
-5.74578e-07
-1.03915e-19
-7.19434e-07
-4.10152e-18
-8.57695e-07
-1.25904e-16
-9.61821e-07
-3.09495e-15
-9.86872e-07
-6.33337e-14
-1.03522e-06
-1.09247e-12
-1.05927e-07
-1.68762e-11
2.26385e-06
-2.24977e-10
1.43158e-06
-2.57525e-09
3.89066e-06
-2.71713e-08
9.08824e-08
-1.98235e-07
1.8908e-08
1.41266e-07
8.95901e-10
2.45604e-08
4.61601e-12
1.14203e-09
-1.35763e-14
8.91057e-12
-4.05305e-18
1.648e-15
-1.09147e-22
4.10267e-19
-3.09948e-25
3.33933e-23
-2.72398e-27
1.62819e-25
1.22859e-27
-4.74007e-29
-1.07817e-25
-2.93128e-26
-1.85197e-23
-4.95915e-24
-1.50836e-21
-4.47082e-22
-7.9146e-20
-2.683e-20
-3.00653e-18
-1.20269e-18
-8.7192e-17
-4.27908e-17
-1.9796e-15
-1.23355e-15
-3.53937e-14
-3.06343e-14
-4.74017e-13
-6.67281e-13
-3.96549e-12
-1.35921e-11
1.46766e-14
-2.31676e-10
2.63439e-11
-2.62986e-09
2.44903e-10
-2.75986e-08
2.71013e-08
-3.69876e-08
-2.09827e-08
8.98846e-08
-1.10001e-09
7.82901e-09
-8.17223e-12
1.48961e-10
-1.43391e-15
6.63958e-13
-3.6878e-19
1.75582e-16
-1.56901e-23
3.42697e-20
-4.55987e-26
3.04717e-24
-3.36329e-28
1.17143e-26
8.16584e-29
-5.44947e-30
-3.09969e-26
-1.64517e-27
-4.72293e-24
-3.15622e-25
-4.31946e-22
-2.72472e-23
-2.6342e-20
-1.56871e-21
-1.19961e-18
-6.72206e-20
-4.33471e-17
-2.27483e-18
-1.26914e-15
-6.3032e-17
-3.194e-14
-1.48539e-15
-6.97181e-13
-3.39752e-14
-1.40773e-11
-6.64416e-13
-2.40132e-10
-1.05942e-11
-2.77789e-09
-1.34182e-10
-3.20192e-08
-1.11369e-09
-5.2226e-08
-2.07298e-09
-7.63467e-09
2.93335e-09
-1.3234e-10
4.42785e-10
-5.78004e-13
2.49604e-11
-1.04898e-16
1.1638e-13
-3.25439e-20
1.76871e-17
-1.88482e-24
1.73737e-21
-5.6407e-27
2.43419e-25
-3.21238e-29
8.82463e-28
5.17259e-30
-4.78928e-31
-1.70632e-27
-5.3674e-29
-3.09979e-25
-1.06784e-26
-2.72022e-23
-8.90021e-25
-1.59165e-21
-4.92947e-23
-6.92883e-20
-2.02565e-21
-2.38086e-18
-6.5444e-20
-6.62596e-17
-1.7373e-18
-1.56429e-15
-4.03051e-17
-3.51483e-14
-1.28726e-15
-6.76716e-13
-3.53305e-14
-1.0938e-11
-4.76575e-13
-1.41532e-10
-4.92379e-12
-1.19339e-09
-1.97034e-11
-3.18142e-09
-8.26111e-11
-4.53119e-10
1.02935e-10
-2.04549e-11
2.31154e-11
-1.06197e-13
1.85035e-12
-1.60727e-17
9.34638e-15
-1.69089e-21
1.29821e-18
-1.78541e-25
4.39286e-23
-5.51899e-28
1.63412e-26
-2.98156e-30
5.91747e-29
3.31684e-31
-3.69932e-32
-5.42859e-29
-5.26853e-31
-1.07585e-26
-1.04183e-28
-9.07693e-25
-8.52842e-27
-5.05643e-23
-4.66343e-25
-2.09121e-21
-1.88783e-23
-6.80313e-20
-5.9905e-22
-1.81886e-18
-1.55474e-20
-4.24421e-17
-3.37762e-19
-1.33739e-15
-6.98743e-18
-3.67532e-14
-2.23676e-16
-5.12225e-13
-4.90556e-15
-5.41782e-12
-5.32418e-14
-3.04816e-11
-2.24308e-13
-1.19491e-10
-2.33949e-12
-2.24574e-11
1.58565e-12
-1.58788e-12
1.01763e-12
-8.79221e-15
6.23903e-14
-1.18665e-18
4.76216e-16
-4.22275e-23
6.1625e-20
-1.34587e-26
1.74765e-24
-4.3695e-29
9.1595e-28
-2.35433e-31
3.44225e-30
1.93115e-32
-2.78171e-33
-5.716e-31
-1.35177e-33
-1.05855e-28
-2.46347e-31
-8.77625e-27
-2.04638e-29
-4.8585e-25
-1.13459e-27
-1.99064e-23
-4.65315e-26
-6.39151e-22
-1.49552e-24
-1.68009e-20
-3.93403e-23
-3.68816e-19
-8.59683e-22
-7.65575e-18
-1.60327e-20
-2.39064e-16
-2.89465e-19
-5.23252e-15
-7.98325e-18
-5.90742e-14
-1.68301e-16
-2.58494e-13
-9.12139e-16
-2.51953e-12
-1.49985e-14
-9.6433e-13
9.57117e-16
-6.33863e-14
1.52683e-14
-4.66906e-16
1.31122e-15
-5.7749e-20
5.97755e-18
-1.66261e-24
8.08374e-22
-8.23673e-28
8.06807e-26
-2.85208e-30
4.3644e-29
-1.58054e-32
1.68857e-31
1.01078e-33
-1.82374e-34
-1.42269e-33
-9.57836e-37
-2.50095e-31
-1.68982e-34
-2.10569e-29
-1.44911e-32
-1.18187e-27
-8.2918e-31
-4.90297e-26
-3.51126e-29
-1.59305e-24
-1.16709e-27
-4.20337e-23
-3.15158e-26
-9.21762e-22
-7.06478e-25
-1.72293e-20
-1.33681e-23
-3.10622e-19
-2.14232e-22
-8.38513e-18
-3.02646e-21
-1.77692e-16
-4.83317e-20
-1.69696e-15
-1.04514e-18
-1.63843e-14
-1.50444e-17
-1.62841e-14
-6.57548e-17
-1.286e-15
9.73066e-17
-5.85169e-18
1.68882e-17
-7.53273e-22
1.00412e-19
-7.73632e-26
1.87735e-23
-4.1289e-29
3.09888e-27
-1.52106e-31
1.78667e-30
-8.87399e-34
6.90907e-33
4.49329e-35
-1.00842e-35
-9.79999e-37
-2.13925e-39
-1.72363e-34
-3.87867e-37
-1.49651e-32
-3.48097e-35
-8.60542e-31
-2.06668e-33
-3.66378e-29
-9.09084e-32
-1.22482e-27
-3.14493e-30
-3.32815e-26
-8.86587e-29
-7.50765e-25
-2.08233e-27
-1.42555e-23
-4.13225e-26
-2.30254e-22
-6.99154e-25
-3.27811e-21
-1.00065e-23
-5.1983e-20
-1.18888e-22
-9.33844e-19
-1.14478e-21
-1.74099e-17
-5.70765e-21
-1.11406e-16
-2.58898e-20
-1.6486e-17
3.79583e-19
-7.99212e-20
2.28182e-19
-1.75803e-23
2.32263e-21
-2.97706e-27
4.95992e-25
-1.70068e-30
9.57789e-29
-6.49271e-33
6.05954e-32
-3.99449e-35
2.47609e-34
1.66737e-36
-4.42563e-37
-2.15123e-39
-8.02207e-43
-3.92053e-37
-1.52997e-40
-3.53811e-35
-1.44525e-38
-2.11251e-33
-9.03533e-37
-9.34726e-32
-4.19127e-35
-3.25382e-30
-1.53296e-33
-9.23429e-29
-4.58594e-32
-2.18469e-27
-1.14891e-30
-4.36867e-26
-2.44817e-29
-7.44794e-25
-4.48116e-28
-1.11417e-23
-6.70758e-27
-1.49285e-22
-7.90444e-26
-1.90737e-21
-6.99515e-25
-8.76188e-20
-7.12038e-24
-5.82855e-19
-3.70503e-23
-2.07393e-19
7.21687e-23
-1.57084e-21
1.10182e-21
-4.8102e-25
2.17285e-23
-9.17162e-29
1.01574e-26
-5.79106e-32
2.39034e-30
-2.33483e-34
1.70046e-33
-1.48757e-36
7.51686e-36
5.34364e-38
-1.63146e-38
-8.03637e-43
-5.89568e-47
-1.54081e-40
-1.19783e-44
-1.46345e-38
-1.20628e-42
-9.20002e-37
-8.04529e-41
-4.29229e-35
-3.98818e-39
-1.57941e-33
-1.56306e-37
-4.75529e-32
-5.02996e-36
-1.1996e-30
-1.36269e-34
-2.57556e-29
-3.16201e-33
-4.75312e-28
-6.3584e-32
-7.45201e-27
-1.00909e-30
-1.00799e-25
-1.22204e-29
-1.59447e-24
-1.20322e-28
-7.5317e-23
-1.40411e-27
-4.73567e-22
-1.44739e-26
-1.15422e-21
-6.69453e-26
-2.50567e-23
5.1195e-24
-5.7858e-27
3.74859e-25
-2.26105e-30
1.6086e-28
-1.62804e-33
4.78494e-32
-7.09535e-36
3.94265e-35
-4.76707e-38
1.93169e-37
1.47865e-39
-5.2378e-40
-5.93378e-47
-1.967e-50
-1.21161e-44
-4.31036e-48
-1.22649e-42
-4.68388e-46
-8.22331e-41
-3.37395e-44
-4.09874e-39
-1.80966e-42
-1.6156e-37
-7.69483e-41
-5.23068e-36
-2.69673e-39
-1.42635e-34
-7.99674e-38
-3.3335e-33
-2.04437e-36
-6.75737e-32
-4.56759e-35
-1.12265e-30
-7.9176e-34
-1.61571e-29
-1.03502e-32
-2.23471e-28
-1.27037e-31
-4.16767e-27
-1.77295e-30
-4.71333e-25
-2.3751e-29
-5.29931e-24
-2.31373e-28
-3.67285e-25
6.49812e-27
-1.17725e-28
2.83633e-27
-4.65556e-32
1.97506e-30
-3.77279e-35
7.56624e-34
-1.82033e-37
7.53939e-37
-1.31422e-39
4.19936e-39
3.53269e-41
-1.46476e-41
-1.96902e-50
-7.66586e-56
-4.33457e-48
-1.83347e-53
-4.73228e-46
-2.1743e-51
-3.42505e-44
-1.71096e-49
-1.84603e-42
-1.0042e-47
-7.88905e-41
-4.68431e-46
-2.77928e-39
-1.80724e-44
-8.28677e-38
-5.92662e-43
-2.13079e-36
-1.68527e-41
-4.7902e-35
-4.21853e-40
-8.87363e-34
-8.44548e-39
-1.44382e-32
-1.26851e-37
-2.19403e-31
-1.74813e-36
-4.72546e-30
-2.85693e-35
-6.76222e-28
-4.11882e-34
-8.68705e-27
-5.25488e-33
-2.82321e-27
-1.37294e-32
-1.53918e-30
5.47812e-30
-7.45145e-34
8.62047e-33
-7.18446e-37
7.99339e-36
-3.93777e-39
1.18393e-38
-3.11401e-41
7.70933e-41
7.2861e-43
-3.56538e-43
-7.67296e-56
-2.07118e-59
-1.843e-53
-5.47053e-57
-2.19517e-51
-7.16131e-55
-1.73506e-49
-6.22574e-53
-1.02298e-47
-4.04288e-51
-4.79426e-46
-2.09126e-49
-1.85865e-44
-8.97428e-48
-6.12611e-43
-3.28631e-46
-1.75129e-41
-1.04855e-44
-4.40876e-40
-2.96253e-43
-9.25314e-39
-7.07812e-42
-1.70352e-37
-1.22809e-40
-3.11175e-36
-2.05884e-39
-6.05496e-35
-3.57327e-38
-1.42289e-33
-6.22176e-37
-2.73609e-31
-1.04223e-35
-4.21159e-30
-1.21651e-34
-8.51001e-33
7.99629e-33
-4.75584e-36
5.18625e-35
-1.10545e-38
8.02818e-38
-7.15524e-41
1.52786e-40
-6.32759e-43
1.19723e-42
1.28708e-44
-7.55212e-45
-2.07346e-59
-4.64564e-64
-5.49764e-57
-1.37128e-61
-7.22515e-55
-2.00545e-59
-6.30626e-53
-1.94901e-57
-4.11176e-51
-1.41675e-55
-2.13569e-49
-8.2198e-54
-9.20373e-48
-3.9672e-52
-3.38498e-46
-1.63955e-50
-1.08488e-44
-5.92899e-49
-3.07949e-43
-1.90828e-47
-7.602e-42
-5.40602e-46
-1.54469e-40
-1.10773e-44
-3.18936e-39
-2.13767e-43
-6.73857e-38
-4.12537e-42
-1.81764e-36
-8.62558e-41
-4.51956e-34
-1.96331e-39
-8.03436e-33
-2.84943e-38
-5.12095e-35
7.70702e-37
-4.62274e-38
1.95882e-37
-1.42962e-40
6.03455e-40
-1.09225e-42
1.59184e-42
-1.10361e-44
1.58285e-44
1.94097e-46
-1.39835e-46
-4.6457e-64
-1.81532e-70
-1.37596e-61
-6.06288e-68
-2.01928e-59
-1.003e-65
-1.96931e-57
-1.10319e-63
-1.43656e-55
-9.08564e-62
-8.36442e-54
-5.98249e-60
-4.05151e-52
-3.28434e-58
-1.68045e-50
-1.54837e-56
-6.09901e-49
-6.40939e-55
-1.97016e-47
-2.3709e-53
-5.69725e-46
-7.94889e-52
-1.30252e-44
-1.99543e-50
-2.99458e-43
-4.37032e-49
-7.00802e-42
-9.56155e-48
-2.40279e-40
-2.31994e-46
-6.00393e-38
-5.17951e-45
-9.61551e-37
-9.90086e-44
-1.91263e-37
-1.11193e-42
-3.4399e-40
2.42494e-40
-1.47589e-42
2.01965e-42
-1.4005e-44
1.27807e-44
-1.65856e-46
1.74774e-46
2.61051e-48
-2.29086e-48
-1.81767e-70
-1.35813e-74
-6.08969e-68
-5.20508e-72
-1.01068e-65
-9.88039e-70
-1.11526e-63
-1.24747e-67
-9.21554e-62
-1.18047e-65
-6.08859e-60
-8.94378e-64
-3.35419e-58
-5.66058e-62
-1.58695e-56
-3.08394e-60
-6.59348e-55
-1.47948e-58
-2.44856e-53
-6.36359e-57
-8.24499e-52
-2.49051e-55
-2.27945e-50
-8.05463e-54
-5.86503e-49
-2.11922e-52
-1.58645e-47
-5.43205e-51
-4.48073e-46
-1.40714e-49
-1.44274e-44
-3.8168e-48
-8.00436e-42
-9.34724e-47
-2.36257e-40
-2.62432e-45
-1.90041e-42
2.15045e-43
-6.59699e-45
8.04487e-45
-1.54361e-46
8.85008e-47
-2.21732e-48
1.64428e-48
3.07375e-50
-3.39051e-50
-1.35825e-74
-1.33876e-81
-5.21918e-72
-5.98796e-79
-9.93367e-70
-1.3267e-76
-1.25756e-67
-1.95586e-74
-1.19322e-65
-2.16279e-72
-9.06467e-64
-1.91712e-70
-5.75245e-62
-1.42182e-68
-3.14231e-60
-9.09475e-67
-1.51143e-58
-5.13432e-65
-6.51769e-57
-2.60546e-63
-2.55727e-55
-1.20651e-61
-8.87328e-54
-4.97213e-60
-2.56447e-52
-1.66589e-58
-7.90241e-51
-4.98885e-57
-2.44704e-49
-1.4581e-55
-8.72868e-48
-4.56086e-54
-6.45262e-45
-1.47404e-52
-2.2262e-43
-3.29733e-51
-7.60743e-45
-4.08225e-51
-4.51617e-47
1.18125e-47
-1.48306e-48
2.75065e-49
-2.61286e-50
1.26583e-50
3.1514e-52
-4.44953e-52
-1.33901e-81
-6.43646e-86
-6.00269e-79
-3.43489e-83
-1.33306e-76
-9.08223e-81
-1.96985e-74
-1.5984e-78
-2.1834e-72
-2.11144e-76
-1.93997e-70
-2.23794e-74
-1.44218e-68
-1.98713e-72
-9.24689e-67
-1.5241e-70
-5.23264e-65
-1.03349e-68
-2.66172e-63
-6.31172e-67
-1.23559e-61
-3.52486e-65
-5.23061e-60
-1.82259e-63
-1.86565e-58
-8.12526e-62
-6.15443e-57
-2.89314e-60
-2.11611e-55
-9.70625e-59
-9.15031e-54
-3.57832e-57
-4.21659e-52
-1.33093e-55
-2.76514e-49
-4.42031e-54
-1.1038e-47
-9.90776e-53
-2.47672e-49
2.05236e-50
-6.60237e-51
1.17855e-51
-2.63855e-52
8.63901e-53
2.83353e-54
-5.14785e-54
-6.43919e-86
-1.46188e-90
-3.44301e-83
-9.60277e-88
-9.12186e-81
-3.12581e-85
-1.6086e-78
-6.77452e-83
-2.12923e-76
-1.10267e-80
-2.26143e-74
-1.44128e-78
-2.01215e-72
-1.57986e-76
-1.54652e-70
-1.49778e-74
-1.05093e-68
-1.25725e-72
-6.4324e-67
-9.52056e-71
-3.60067e-65
-6.60449e-69
-1.86674e-63
-4.2506e-67
-8.88059e-62
-2.52832e-65
-3.40256e-60
-1.21219e-63
-1.29538e-58
-5.09544e-62
-5.35976e-57
-2.05175e-60
-2.95108e-55
-9.75545e-59
-4.16637e-52
-4.30896e-57
-2.02425e-50
-1.80822e-55
-1.07875e-51
1.89651e-53
-4.44281e-53
3.89896e-54
-2.37706e-54
4.98154e-55
2.23009e-56
-5.26937e-56
-1.46191e-90
-6.85004e-96
-9.61765e-88
-5.80396e-93
-3.13554e-85
-2.43691e-90
-6.80622e-83
-6.81412e-88
-1.10955e-80
-1.43163e-85
-1.45252e-78
-2.41702e-83
-1.59461e-76
-3.42505e-81
-1.51402e-74
-4.20209e-79
-1.27274e-72
-4.57016e-77
-9.65161e-71
-4.49e-75
-6.70478e-69
-4.04694e-73
-4.3212e-67
-3.38929e-71
-2.60625e-65
-2.6644e-69
-1.36703e-63
-1.83582e-67
-6.14405e-62
-1.08191e-65
-2.79361e-60
-5.49017e-64
-1.66578e-58
-3.02274e-62
-3.57763e-55
-1.82159e-60
-2.17132e-53
-1.19634e-58
-3.63248e-54
3.09062e-57
-2.5277e-55
8.2869e-57
-1.85783e-56
2.38602e-57
1.52026e-58
-4.74764e-58
-6.85169e-96
-1.51611e-102
-5.81248e-93
-1.79325e-99
-2.44356e-90
-1.05003e-96
-6.84141e-88
-4.09447e-94
-1.43921e-85
-1.20004e-91
-2.43296e-83
-2.82815e-89
-3.45212e-81
-5.59914e-87
-4.24088e-79
-9.60774e-85
-4.61855e-77
-1.46333e-82
-4.54388e-75
-2.01622e-80
-4.10161e-73
-2.55268e-78
-3.44097e-71
-3.00857e-76