/*--------------------------------*- C++ -*----------------------------------*\
  =========                 |
  \\      /  F ield         | OpenFOAM: The Open Source CFD Toolbox
   \\    /   O peration     | Website:  https://openfoam.org
    \\  /    A nd           | Version:  13
     \\/     M anipulation  |
\*---------------------------------------------------------------------------*/
FoamFile
{
    format      ascii;
    class       volScalarField;
    location    "0.05";
    object      p;
}
// * * * * * * * * * * * * * * * * * * * * * * * * * * * * * * * * * * * * * //

dimensions      [1 -1 -2 0 0 0 0];

internalField   nonuniform List<scalar> 
2268
(
1342.23
1333.7
1315.12
1286.82
1248.45
1199.35
1138.66
1065.13
977.585
872.652
749.315
611.535
426.295
190.847
46.5368
13.5254
9.44502
9.16622
8.78576
8.49628
8.30852
8.19556
8.14266
1284.86
1276.34
1257.78
1229.52
1191.21
1142.17
1081.54
1008.06
920.55
815.345
691.725
552.94
358.104
125.087
23.8472
9.67815
8.5738
8.79375
8.65217
8.4124
8.22835
8.11812
8.06691
1228.99
1220.49
1201.98
1173.81
1135.61
1086.7
1026.21
952.854
865.429
759.848
635.852
494.441
285.048
68.0229
14.5927
8.39985
8.04246
8.35658
8.41501
8.26368
8.11332
8.0167
7.96945
1174.64
1166.16
1147.73
1119.69
1081.66
1032.95
972.692
899.566
812.322
706.456
582.331
437.82
216.702
36.7319
11.0552
7.8876
7.77779
8.05857
8.16772
8.08628
7.97695
7.89621
7.8525
1121.8
1113.35
1095.03
1067.17
1029.37
980.952
921.027
848.267
761.371
655.526
531.866
384.66
158.038
22.1197
9.2076
7.66297
7.6492
7.86871
7.95694
7.91088
7.83021
7.76128
7.71783
1070.48
1062.08
1043.9
1016.27
978.768
930.729
871.262
799.04
712.731
607.38
484.993
336.194
111.605
14.8398
8.27727
7.50533
7.56333
7.71325
7.77242
7.74233
7.67833
7.61541
7.5656
1020.68
1012.32
994.32
966.96
929.831
882.266
823.388
751.884
666.416
562.071
441.868
293.072
77.1023
10.9578
7.78388
7.38978
7.4744
7.56542
7.604
7.5804
7.5246
7.4614
7.39322
972.337
964.03
946.232
919.191
882.495
835.494
777.325
706.712
622.316
519.455
401.98
254.885
52.8636
8.80038
7.47088
7.29978
7.37047
7.42358
7.44756
7.42524
7.3719
7.30358
7.19962
6.84528
6.83725
6.82056
6.79859
6.77409
6.74894
6.72425
6.70079
6.67895
6.65902
6.64107
6.6252
6.61137
6.59961
6.58985
6.58211
6.57632
6.5725
6.57057
6.78755
6.77956
6.76252
6.74015
6.71535
6.68999
6.66517
6.64164
6.61976
6.59981
6.58185
6.56598
6.55214
6.54039
6.53063
6.5229
6.51711
6.51329
6.51137
6.73098
6.72311
6.70532
6.68213
6.65672
6.63096
6.60589
6.5822
6.56023
6.54023
6.52224
6.50637
6.49254
6.48079
6.47104
6.46331
6.45753
6.45372
6.4518
6.67552
6.66796
6.64898
6.62451
6.59818
6.57182
6.54636
6.52245
6.50034
6.48027
6.46226
6.44637
6.43255
6.42081
6.41107
6.40336
6.39759
6.39378
6.39187
6.62127
6.61427
6.59348
6.56721
6.53964
6.51251
6.48656
6.46236
6.44009
6.41994
6.40189
6.38599
6.37217
6.36044
6.35073
6.34303
6.33728
6.33348
6.33157
6.56771
6.56228
6.53881
6.51013
6.48102
6.45296
6.42645
6.40191
6.37946
6.35921
6.34112
6.32521
6.31141
6.2997
6.29002
6.28234
6.2766
6.27281
6.27091
6.51153
6.51197
6.48491
6.45312
6.42232
6.39312
6.36598
6.34108
6.31843
6.29808
6.27996
6.26405
6.25027
6.23859
6.22893
6.22127
6.21556
6.21178
6.2099
6.45606
6.46296
6.43165
6.39596
6.36315
6.33286
6.30508
6.27982
6.25699
6.23654
6.2184
6.20249
6.18874
6.17709
6.16747
6.15984
6.15416
6.1504
6.14852
899.156
890.933
873.524
847.073
811.187
765.256
708.46
639.625
557.419
458.034
344.749
202.453
31.0497
7.89933
7.14774
7.15581
7.19104
7.21244
7.21889
7.19377
7.13809
7.05011
6.85638
806.446
798.451
781.732
756.36
721.971
678.042
623.876
558.509
480.898
388.11
284.007
153.239
16.0305
7.20901
6.84274
6.92294
6.93913
6.94442
6.93839
6.90938
6.85521
6.7749
6.66824
720.411
712.711
696.826
672.755
640.183
598.691
547.731
486.577
414.526
329.431
235.686
118.021
9.91443
6.77746
6.61995
6.6812
6.68888
6.68958
6.67929
6.65185
6.60718
6.54628
6.4736
640.872
633.536
618.61
596.031
565.545
526.841
479.524
423.104
357.19
280.286
197.067
92.5029
7.61642
6.4016
6.40611
6.44344
6.44739
6.44649
6.43535
6.41111
6.37403
6.32449
6.26356
567.569
560.658
546.789
525.848
497.644
461.969
418.57
367.158
307.594
238.877
165.681
73.3326
6.64953
6.14513
6.19161
6.21205
6.21453
6.21311
6.2025
6.18144
6.15026
6.10948
6.06035
500.182
493.746
481.002
461.799
436.003
403.497
364.146
317.821
264.563
203.726
139.774
58.5408
6.19805
5.92374
5.97433
5.98641
5.98885
5.98773
5.97841
5.96054
5.93462
5.90135
5.8619
438.338
432.413
420.839
403.427
380.102
350.818
315.53
274.228
227.067
173.642
118.074
46.8444
5.85402
5.68212
5.75436
5.76606
5.76974
5.76938
5.76161
5.7467
5.72529
5.69809
5.66606
381.624
376.237
365.848
350.245
329.399
303.317
272.021
235.58
194.213
147.674
99.6704
37.4907
5.58501
5.46147
5.54146
5.55312
5.55752
5.55757
5.55107
5.53864
5.52095
5.49866
5.47256
329.598
324.762
315.552
301.74
283.335
260.379
232.939
201.133
165.211
125.025
83.8584
29.9515
5.36137
5.2681
5.33812
5.34857
5.35219
5.35173
5.34588
5.33532
5.32063
5.30234
5.28106
281.799
277.514
269.458
257.39
241.351
221.407
197.649
170.22
139.381
105.05
70.0963
23.8443
5.17102
5.10081
5.14663
5.15206
5.15293
5.1509
5.14501
5.13575
5.12346
5.10847
5.09122
237.751
234.006
227.063
216.674
202.904
185.835
165.567
142.256
116.16
87.2474
57.9968
18.9007
4.98988
4.93803
4.96178
4.96084
4.95791
4.95366
4.94722
4.93883
4.92854
4.91642
4.90265
196.913
193.687
187.807
179.025
167.413
153.066
136.091
116.646
94.9853
71.1196
47.1771
14.8975
4.80197
4.76629
4.77802
4.7719
4.76508
4.75836
4.75115
4.74344
4.73498
4.72551
4.71495
158.825
156.102
151.24
143.985
134.416
122.635
108.758
92.9499
75.4487
56.289
37.3054
11.6122
4.62349
4.5953
4.59583
4.58402
4.57277
4.56343
4.55546
4.54852
4.54197
4.53518
4.52776
123.715
121.474
117.589
111.782
104.148
94.7976
83.8605
71.5127
57.9807
43.2577
28.8529
9.08172
4.47779
4.4292
4.41675
4.39628
4.37912
4.36703
4.35871
4.35304
4.34881
4.34496
4.34085
90.5239
88.6674
85.6784
81.2103
75.3494
68.2262
59.9799
50.8175
40.9977
30.5354
20.7544
6.92363
4.25004
4.2637
4.24092
4.20583
4.18096
4.16656
4.15911
4.1559
4.15486
4.15454
4.15407
53.5284
51.9897
49.7607
46.4492
42.1162
36.895
30.9369
24.483
17.8029
11.1891
6.45979
1.68072
3.91042
4.16095
4.06993
4.00533
3.97318
3.9588
3.95473
3.95608
3.95965
3.96376
3.96745
20.3753
19.3503
17.9743
15.8701
13.1727
9.99291
6.501
2.93512
-0.472611
-3.31796
-3.77979
-2.91302
3.80561
4.13672
3.89173
3.77872
3.74773
3.7401
3.74409
3.75311
3.76314
3.77276
3.78121
16.9382
16.4845
16.0811
15.4273
14.6248
13.7598
12.965
12.367
12.3431
12.6826
15.6303
21.922
3.81423
3.84189
3.61646
3.50047
3.49197
3.50696
3.52684
3.54766
3.56599
3.58212
3.59583
19.3314
19.2363
19.0407
18.7672
18.4058
17.9635
17.4355
16.804
16.1944
14.7087
13.2556
4.96451
4.86217
1.69297
2.7919
3.09163
3.20295
3.26152
3.30636
3.34126
3.36956
3.39286
3.41207
1.59975
1.60635
1.61234
1.62185
1.63409
1.6489
1.66574
1.68464
1.70286
1.70117
1.66101
1.69672
1.0189
0.406949
2.07264
2.65918
2.89686
3.01543
3.08769
3.13801
3.17623
3.20648
3.2309
1.55484
1.55865
1.56537
1.57536
1.58848
1.60477
1.62455
1.6478
1.67094
1.69593
1.73064
1.71091
1.37887
1.41457
1.88345
2.39446
2.64722
2.79123
2.88048
2.94247
2.98864
3.0246
3.0534
1.52518
1.52883
1.53617
1.54701
1.56138
1.57951
1.60183
1.62801
1.65714
1.6937
1.73528
1.74652
1.72426
1.84914
2.0912
2.32287
2.4865
2.60739
2.69453
2.75944
2.80931
2.84873
2.88052
1.48423
1.48798
1.49554
1.5068
1.52191
1.54118
1.56496
1.59329
1.62694
1.66817
1.71159
1.74792
1.80369
1.92947
2.09849
2.2415
2.35624
2.451
2.52763
2.58928
2.63902
2.67951
2.71279
1.43959
1.44356
1.45124
1.46281
1.4785
1.49858
1.52333
1.5531
1.58885
1.63139
1.67878
1.73235
1.80412
1.90336
2.01879
2.12846
2.2231
2.3038
2.37187
2.42896
2.47671
2.51667
2.55019
1.39012
1.394
1.4017
1.41338
1.42924
1.44955
1.47455
1.50463
1.54047
1.58242
1.63033
1.68653
1.7557
1.83851
1.92735
2.01364
2.09258
2.16254
2.22342
2.27592
2.32095
2.35947
2.39238
1.3359
1.33962
1.34727
1.35886
1.37453
1.39452
1.4191
1.44856
1.48334
1.52375
1.57016
1.62382
1.68593
1.75543
1.82803
1.89912
1.96579
2.02653
2.08079
2.12869
2.17063
2.20716
2.23888
1.27677
1.28044
1.28795
1.29925
1.31442
1.3337
1.35733
1.38554
1.41856
1.45663
1.50001
1.54913
1.60392
1.66309
1.72406
1.78411
1.84129
1.89435
1.94268
1.98613
2.02483
2.05907
2.0892
1.21316
1.21678
1.224
1.2348
1.24927
1.26758
1.28994
1.31647
1.34732
1.38256
1.42227
1.46639
1.51447
1.56539
1.61747
1.66897
1.71845
1.76501
1.80806
1.84732
1.88278
1.91456
1.94286
1.1456
1.14905
1.15583
1.16596
1.17956
1.19674
1.21761
1.24224
1.27066
1.30284
1.33869
1.37796
1.42012
1.46425
1.50919
1.55375
1.59689
1.63786
1.67618
1.71154
1.74384
1.7731
1.79943
1.07435
1.0775
1.08374
1.09312
1.10575
1.12168
1.14093
1.16353
1.18942
1.2185
1.25059
1.28538
1.32234
1.36076
1.39978
1.43856
1.47631
1.51241
1.54648
1.57821
1.60747
1.63421
1.65849
0.9995
1.00232
1.008
1.01662
1.02824
1.04285
1.06044
1.08096
1.10433
1.1304
1.15895
1.18964
1.22204
1.25557
1.28957
1.3234
1.35648
1.38829
1.41851
1.44688
1.47323
1.4975
1.51968
0.921271
0.923783
0.928944
0.936823
0.947416
0.960698
0.976619
0.995101
1.01603
1.03923
1.06449
1.0915
1.11986
1.14912
1.17877
1.2083
1.23726
1.26522
1.29195
1.31717
1.34075
1.3626
1.3827
0.840074
0.842326
0.847009
0.854159
0.863741
0.875707
0.889987
0.906488
0.925083
0.945603
0.967829
0.991484
1.01624
1.04172
1.06752
1.09325
1.11854
1.14307
1.16652
1.18879
1.20972
1.22922
1.24726
0.756407
0.75844
0.762665
0.769093
0.777671
0.788339
0.801018
0.815613
0.831993
0.849993
0.869412
0.890007
0.9115
0.933582
0.955929
0.978221
1.00016
1.02149
1.04198
1.06148
1.07989
1.09711
1.11311
0.670731
0.67256
0.676328
0.682032
0.689611
0.699001
0.710125
0.722887
0.737159
0.752788
0.769593
0.787366
0.805871
0.824852
0.844047
0.863199
0.882069
0.900444
0.91814
0.935029
0.951018
0.966034
0.980031
0.583393
0.585013
0.58832
0.593295
0.599882
0.60802
0.617635
0.628632
0.640893
0.65428
0.668636
0.683781
0.699517
0.715634
0.73192
0.748168
0.764185
0.779798
0.794862
0.809266
0.822934
0.835806
0.847839
0.494628
0.496034
0.498873
0.50312
0.50873
0.515646
0.523795
0.533091
0.543429
0.554688
0.566734
0.579412
0.592558
0.606002
0.619573
0.633105
0.646444
0.659451
0.672013
0.684041
0.695472
0.706258
0.716365
0.404625
0.405809
0.408177
0.411705
0.416357
0.422079
0.428807
0.436463
0.444959
0.45419
0.464042
0.474386
0.485088
0.496012
0.507023
0.51799
0.528792
0.539321
0.54949
0.559228
0.568493
0.577245
0.585458
0.31355
0.314504
0.316402
0.319225
0.322939
0.327499
0.332849
0.338924
0.345649
0.352937
0.360691
0.368809
0.377185
0.385712
0.394287
0.402808
0.411185
0.419336
0.427198
0.434719
0.441874
0.448635
0.454985
0.221467
0.222187
0.223625
0.225762
0.228567
0.232004
0.236026
0.24058
0.245604
0.251027
0.256771
0.262758
0.268907
0.27514
0.281378
0.287548
0.293586
0.299437
0.305059
0.310425
0.315506
0.320308
0.324821
0.128662
0.129144
0.130126
0.131587
0.133502
0.135842
0.138571
0.141645
0.145015
0.148627
0.152424
0.156348
0.160342
0.164351
0.168323
0.172209
0.17597
0.179573
0.182998
0.186234
0.189281
0.192151
0.194846
0.036696
0.0369151
0.0374085
0.0381496
0.0391193
0.0402968
0.0416578
0.0431737
0.0448125
0.0465401
0.0483215
0.0501225
0.0519101
0.053654
0.0553275
0.0569085
0.0583807
0.0597339
0.0609646
0.0620767
0.0630943
0.0640457
0.06494
6.57062
6.5303
6.5215
6.49037
6.56543
6.50985
6.46098
6.41488
6.403
6.35516
6.31128
6.27167
6.21043
6.17601
6.14281
6.11097
6.01998
5.99352
5.967
5.94089
5.82975
5.80854
5.78703
5.76558
5.64007
5.62289
5.60535
5.58768
5.45143
5.43744
5.42308
5.40851
5.26387
5.25246
5.24072
5.22874
5.07729
5.06805
5.05852
5.04877
4.89156
4.8842
4.8766
4.8688
4.70645
4.7008
4.69496
4.68894
4.52177
4.51776
4.51358
4.50924
4.33739
4.33501
4.33246
4.32977
4.15326
4.15257
4.15169
4.15063
3.96949
3.97057
3.97141
3.97201
3.78633
3.78927
3.79188
3.79417
3.6042
3.60908
3.61349
3.61747
3.42371
3.43051
3.43669
3.44231
3.24561
3.2542
3.26203
3.26917
3.07073
3.08087
3.09012
3.09858
2.8998
2.91111
2.92147
2.93097
2.73324
2.74531
2.75641
2.76663
2.57111
2.58354
2.59504
2.60568
2.41322
2.42568
2.43728
2.44807
2.25924
2.27148
2.28293
2.29364
2.10877
2.1206
2.13172
2.14217
1.96144
1.97272
1.98337
1.99342
1.81686
1.82749
1.83757
1.84711
1.67469
1.6846
1.69403
1.70298
1.5346
1.54375
1.55247
1.56078
1.39629
1.40465
1.41264
1.42027
1.25951
1.26706
1.27429
1.28121
1.12402
1.13076
1.13722
1.14341
0.989609
0.995531
1.00122
1.00667
0.856094
0.861203
0.866116
0.870834
0.72331
0.727612
0.731753
0.735735
0.59111
0.594613
0.597987
0.601235
0.459358
0.46207
0.464685
0.467202
0.32793
0.329859
0.331719
0.33351
0.196704
0.197857
0.198968
0.200039
0.0655569
0.0659394
0.0663083
0.0666638
6.42123
6.38837
6.34762
6.30598
6.26988
6.23787
6.20912
6.18332
6.16022
6.13966
6.12149
6.10561
6.09192
6.08034
6.07079
6.06322
6.05759
6.05386
6.052
6.34173
6.27402
6.22294
6.17805
6.13933
6.10567
6.076
6.04971
6.02641
6.00582
5.98772
5.97197
5.95843
5.94699
5.93758
5.93013
5.92459
5.92093
5.9191
6.21036
6.14279
6.0892
6.04341
6.00397
5.96979
5.93985
5.9135
5.89028
5.86985
5.85197
5.83645
5.82314
5.81192
5.80271
5.79542
5.79
5.78642
5.78464
6.05994
5.99832
5.94665
5.90221
5.86362
5.82997
5.80048
5.77454
5.75172
5.7317
5.71421
5.69906
5.68609
5.67516
5.6662
5.65911
5.65385
5.65037
5.64864
5.89827
5.84417
5.79678
5.75519
5.71857
5.68633
5.6579
5.63283
5.61076
5.59138
5.57447
5.55982
5.54729
5.53674
5.52809
5.52126
5.51618
5.51283
5.51116
5.73011
5.68346
5.6412
5.60327
5.56936
5.53914
5.51228
5.48848
5.46745
5.44896
5.43279
5.41879
5.4068
5.39672
5.38844
5.38191
5.37706
5.37385
5.37226
5.55816
5.51834
5.48131
5.4474
5.4166
5.38882
5.3639
5.34167
5.32194
5.30453
5.28928
5.27605
5.26471
5.25516
5.24732
5.24113
5.23654
5.2335
5.23199
5.38398
5.35025
5.31825
5.2884
5.2609
5.2358
5.21308
5.19265
5.17441
5.15826
5.14406
5.1317
5.1211
5.11216
5.10482
5.09901
5.0947
5.09185
5.09043
5.20847
5.18017
5.15286
5.127
5.10284
5.08054
5.06015
5.04168
5.02508
5.0103
4.99726
4.98588
4.97609
4.96782
4.96102
4.95563
4.95163
4.94897
4.94766
5.03219
5.00875
4.9858
4.96376
4.94291
4.92344
4.90546
4.88903
4.87417
4.86086
4.84905
4.83872
4.8298
4.82224
4.81602
4.81108
4.80741
4.80497
4.80376
4.8555
4.83646
4.81757
4.79917
4.78154
4.76488
4.74933
4.73499
4.72191
4.71012
4.69961
4.69036
4.68236
4.67556
4.66994
4.66547
4.66214
4.65993
4.65883
4.67863
4.66366
4.64856
4.63363
4.6191
4.60519
4.59205
4.5798
4.56853
4.55829
4.5491
4.54097
4.53391
4.52788
4.52288
4.5189
4.51593
4.51395
4.51297
4.50174
4.4906
4.47909
4.46746
4.45592
4.44468
4.43389
4.42371
4.41424
4.40555
4.3977
4.3907
4.38458
4.37934
4.37498
4.37149
4.36888
4.36715
4.36628
4.32499
4.31751
4.30943
4.30096
4.29229
4.28362
4.27512
4.26696
4.25926
4.2521
4.24557
4.2397
4.23452
4.23007
4.22634
4.22335
4.2211
4.21961
4.21886
4.14855
4.14463
4.13984
4.13439
4.12846
4.12226
4.11597
4.10977
4.10378
4.09812
4.09287
4.08811
4.08387
4.08018
4.07708
4.07458
4.0727
4.07144
4.07082
3.97263
3.97217
3.97056
3.968
3.96469
3.96085
3.95667
3.95233
3.94799
3.94377
3.93978
3.93608
3.93274
3.92981
3.92732
3.9253
3.92378
3.92276
3.92225
3.79748
3.8004
3.80184
3.80203
3.8012
3.79959
3.7974
3.79484
3.79207
3.78922
3.78642
3.78374
3.78127
3.77907
3.77717
3.77562
3.77444
3.77365
3.77325
3.62341
3.6296
3.63393
3.63671
3.63822
3.63869
3.63838
3.63748
3.63618
3.63462
3.63294
3.63123
3.62959
3.62807
3.62674
3.62563
3.62478
3.6242
3.62391
3.4508
3.46006
3.46711
3.4723
3.47595
3.47836
3.47977
3.48041
3.48047
3.4801
3.47947
3.47866
3.47779
3.47692
3.47612
3.47543
3.47489
3.47452
3.47433
3.28002
3.2921
3.30161
3.30899
3.31459
3.31875
3.32173
3.32377
3.32507
3.32579
3.32612
3.32615
3.32599
3.32573
3.32542
3.32512
3.32486
3.32468
3.32458
3.11148
3.12601
3.13769
3.14698
3.15432
3.16002
3.1644
3.16769
3.17012
3.1718
3.17301
3.1738
3.17429
3.17457
3.17471
3.17476
3.17477
3.17476
3.17475
2.94551
2.96206
2.97554
2.98646
2.99527
3.00231
3.00789
3.01227
3.01567
3.01826
3.02023
3.02169
3.02277
3.02354
3.02408
3.02445
3.02469
3.02483
3.0249
2.78236
2.80043
2.81532
2.82755
2.83757
2.84572
2.85232
2.85763
2.86187
2.86522
2.86786
2.86991
2.87149
2.87269
2.87359
2.87424
2.87469
2.87497
2.87511
2.62213
2.64123
2.65714
2.67035
2.6813
2.69034
2.69776
2.70383
2.70877
2.71276
2.71596
2.71852
2.72053
2.7221
2.7233
2.7242
2.72482
2.72522
2.72542
2.46483
2.4845
2.50104
2.51491
2.52653
2.53621
2.54427
2.55093
2.55642
2.56093
2.56459
2.56756
2.56994
2.57182
2.57327
2.57437
2.57515
2.57564
2.5759
2.31036
2.33017
2.34699
2.36123
2.37326
2.38338
2.39187
2.39897
2.40488
2.40977
2.4138
2.41709
2.41975
2.42188
2.42354
2.4248
2.4257
2.42628
2.42657
2.15856
2.17817
2.19496
2.20929
2.22149
2.23184
2.24059
2.24796
2.25415
2.25931
2.2636
2.26713
2.27
2.27231
2.27413
2.27552
2.27652
2.27716
2.27749
2.00924
2.02834
2.04483
2.05901
2.07117
2.08156
2.0904
2.0979
2.10423
2.10956
2.114
2.11769
2.12071
2.12315
2.12508
2.12656
2.12763
2.12832
2.12867
1.86218
1.88054
1.8965
1.91032
1.92225
1.9325
1.94128
1.94877
1.95513
1.96051
1.96503
1.96879
1.97189
1.97441
1.9764
1.97794
1.97905
1.97978
1.98014
1.71718
1.73459
1.74983
1.76311
1.77464
1.7846
1.79318
1.80054
1.80682
1.81216
1.81666
1.82043
1.82354
1.82608
1.8281
1.82966
1.8308
1.83154
1.83191
1.57399
1.59031
1.60468
1.61727
1.62826
1.6378
1.64606
1.65317
1.65928
1.66448
1.66889
1.67259
1.67566
1.67818
1.68019
1.68174
1.68287
1.68361
1.68398
1.43242
1.44753
1.4609
1.47268
1.483
1.49201
1.49984
1.50662
1.51245
1.51744
1.52168
1.52526
1.52824
1.53068
1.53264
1.53416
1.53527
1.53599
1.53635
1.29226
1.30607
1.31834
1.3292
1.33877
1.34715
1.35446
1.36081
1.36629
1.371
1.37502
1.37842
1.38125
1.38359
1.38546
1.38692
1.38798
1.38868
1.38902
1.15332
1.16576
1.17687
1.18673
1.19546
1.20313
1.20984
1.21569
1.22076
1.22513
1.22886
1.23203
1.23468
1.23686
1.23862
1.23999
1.24099
1.24165
1.24197
1.01542
1.02645
1.03634
1.04515
1.05296
1.05985
1.06591
1.0712
1.07579
1.07976
1.08317
1.08606
1.08848
1.09049
1.0921
1.09336
1.09428
1.09489
1.09518
0.878409
0.887996
0.896616
0.904323
0.911177
0.917241
0.922581
0.927257
0.93133
0.934856
0.937885
0.940464
0.942633
0.944426
0.945874
0.947002
0.94783
0.948372
0.948634
0.742135
0.75026
0.757585
0.76415
0.770003
0.775194
0.779775
0.783796
0.787305
0.790349
0.792969
0.795204
0.797085
0.798644
0.799903
0.800885
0.801606
0.802079
0.802306
0.60646
0.613112
0.61912
0.624517
0.629338
0.633622
0.63741
0.64074
0.643653
0.646183
0.648365
0.650228
0.651799
0.653101
0.654155
0.654977
0.655581
0.655977
0.656166
0.471256
0.476426
0.481105
0.485314
0.48908
0.492433
0.495401
0.498016
0.500306
0.502298
0.504018
0.505488
0.506729
0.507758
0.508592
0.509243
0.509721
0.510035
0.510182
0.336397
0.340085
0.343426
0.346436
0.349133
0.351537
0.353668
0.355547
0.357194
0.35863
0.35987
0.360931
0.361827
0.362571
0.363174
0.363645
0.363991
0.364218
0.364323
0.201765
0.203972
0.205974
0.20778
0.209399
0.210843
0.212125
0.213256
0.214249
0.215115
0.215863
0.216504
0.217046
0.217496
0.217861
0.218146
0.218355
0.218493
0.218554
0.0672363
0.06797
0.068636
0.0692371
0.0697767
0.0702586
0.0706866
0.0710648
0.0713969
0.0716866
0.0719373
0.0721521
0.0723337
0.0724847
0.0726072
0.0727029
0.0727733
0.0728196
0.0728396
)
;

boundaryField
{
    leftWall
    {
        type            calculated;
        value           nonuniform List<scalar> 
50
(
1342.23
1284.86
1228.99
1174.64
1121.8
1070.48
1020.68
972.337
899.156
806.446
720.411
640.872
567.569
500.182
438.338
381.624
329.598
281.799
237.751
196.913
158.825
123.715
90.5239
53.5284
20.3753
16.9382
19.3314
1.59975
1.55484
1.52518
1.48423
1.43959
1.39012
1.3359
1.27677
1.21316
1.1456
1.07435
0.9995
0.921271
0.840074
0.756407
0.670731
0.583393
0.494628
0.404625
0.31355
0.221467
0.128662
0.036696
)
;
    }
    rightWall
    {
        type            calculated;
        value           nonuniform List<scalar> 
50
(
6.57057
6.51137
6.4518
6.39187
6.33157
6.27091
6.2099
6.14852
6.052
5.9191
5.78464
5.64864
5.51116
5.37226
5.23199
5.09043
4.94766
4.80376
4.65883
4.51297
4.36628
4.21886
4.07082
3.92225
3.77325
3.62391
3.47433
3.32458
3.17475
3.0249
2.87511
2.72542
2.5759
2.42657
2.27749
2.12867
1.98014
1.83191
1.68398
1.53635
1.38902
1.24197
1.09518
0.948634
0.802306
0.656166
0.510182
0.364323
0.218554
0.0728396
)
;
    }
    lowerWall
    {
        type            calculated;
        value           nonuniform List<scalar> 
62
(
1371.66
1363.13
1344.55
1316.25
1277.88
1228.78
1168.08
1094.55
1007.01
902.081
778.744
640.964
455.724
218.647
60.7747
14.5478
9.70123
9.2427
8.82232
8.5265
8.33801
8.225
8.1721
8.14266
8.06691
7.96945
7.8525
7.71783
7.5656
7.39322
7.19962
6.63322
6.59289
6.58409
6.55297
6.84528
6.78755
6.73098
6.67552
6.62127
6.56771
6.51153
6.45606
6.8747
6.86668
6.84999
6.82802
6.80352
6.77836
6.75368
6.73022
6.70838
6.68845
6.6705
6.65463
6.6408
6.62904
6.61928
6.61154
6.60575
6.60193
6.6
)
;
    }
    atmosphere
    {
        type            calculated;
        value           nonuniform List<scalar> 
46
(
-0.00818868
-0.00814736
-0.00792194
-0.00758696
-0.00715208
-0.00662995
-0.00603613
-0.00538869
-0.00470755
-0.00401378
-0.00332859
-0.0026724
-0.00206377
-0.00151856
-0.00104918
-0.000664115
-0.000367828
-0.000160829
-4.01444e-05
-3.52562e-08
0
0
0
0
0
0
0
0
0
0
0
0
0
0
0
0
0
0
0
0
0
0
0
0
0
0
)
;
    }
    defaultFaces
    {
        type            empty;
    }
}


// ************************************************************************* //
