/*--------------------------------*- C++ -*----------------------------------*\
  =========                 |
  \\      /  F ield         | OpenFOAM: The Open Source CFD Toolbox
   \\    /   O peration     | Website:  https://openfoam.org
    \\  /    A nd           | Version:  13
     \\/     M anipulation  |
\*---------------------------------------------------------------------------*/
FoamFile
{
    format      ascii;
    class       volScalarField;
    location    "0.05";
    object      p_rgh;
}
// * * * * * * * * * * * * * * * * * * * * * * * * * * * * * * * * * * * * * //

dimensions      [1 -1 -2 0 0 0 0];

internalField   nonuniform List<scalar> 
2268
(
1371.66
1363.13
1344.55
1316.25
1277.88
1228.78
1168.08
1094.55
1007.01
902.081
778.744
640.964
455.724
218.647
60.7747
14.5478
9.70123
9.2427
8.82232
8.5265
8.33801
8.225
8.1721
1373.15
1364.63
1346.07
1317.81
1279.49
1230.46
1169.83
1096.35
1008.84
903.633
780.013
641.228
446.311
190.957
43.5528
11.9876
9.31179
9.02465
8.76407
8.50352
8.31687
8.20643
8.15521
1376.14
1367.64
1349.13
1320.95
1282.75
1233.84
1173.36
1100
1012.58
906.995
782.999
641.588
430.275
138.868
21.0928
10.1384
8.83968
8.71002
8.59773
8.4144
8.26079
8.16387
8.11661
1380.64
1372.16
1353.74
1325.69
1287.66
1238.96
1178.7
1105.57
1018.33
912.462
788.337
643.826
413.514
102.241
14.4537
9.05843
8.28715
8.35408
8.39165
8.29409
8.18311
8.10222
8.05851
1386.66
1378.22
1359.9
1332.03
1294.23
1245.82
1185.89
1113.13
1026.24
920.39
796.731
649.524
397.761
79.9013
11.7829
8.47643
8.05911
8.16529
8.22713
8.17645
8.09515
8.02615
7.9827
1394.21
1385.8
1367.63
1339.99
1302.49
1254.45
1194.99
1122.76
1036.45
931.103
808.716
659.917
386.535
62.1936
10.3473
8.13771
7.95627
8.05084
8.09853
8.06639
8.00209
7.93914
7.88932
1403.26
1394.91
1376.9
1349.54
1312.41
1264.85
1205.97
1134.47
1049
944.653
824.449
675.654
381.951
49.4117
9.25058
7.9367
7.8869
7.95374
7.98756
7.96313
7.9072
7.84398
7.7758
1413.78
1405.47
1387.67
1360.63
1323.93
1276.93
1218.77
1148.15
1063.76
960.895
843.421
696.326
384.902
41.2281
8.58838
7.8336
7.82547
7.86735
7.88939
7.86674
7.81335
7.74502
7.64106
6.8747
6.86668
6.84999
6.82802
6.80352
6.77836
6.75368
6.73022
6.70838
6.68845
6.6705
6.65463
6.6408
6.62904
6.61928
6.61154
6.60575
6.60193
6.6
6.87584
6.86785
6.85081
6.82844
6.80363
6.77828
6.75346
6.72993
6.70805
6.6881
6.67014
6.65426
6.64043
6.62868
6.61892
6.61118
6.6054
6.60158
6.59966
6.87813
6.87025
6.85247
6.82928
6.80387
6.77811
6.75303
6.72935
6.70737
6.68738
6.66939
6.65351
6.63968
6.62793
6.61819
6.61046
6.60468
6.60087
6.59895
6.88153
6.87396
6.85498
6.83051
6.80418
6.77782
6.75237
6.72845
6.70635
6.68628
6.66826
6.65238
6.63855
6.62681
6.61708
6.60936
6.60359
6.59979
6.59787
6.88613
6.87914
6.85835
6.83207
6.8045
6.77737
6.75143
6.72722
6.70496
6.6848
6.66675
6.65085
6.63703
6.62531
6.61559
6.6079
6.60214
6.59834
6.59643
6.89143
6.886
6.86253
6.83385
6.80475
6.77669
6.75017
6.72564
6.70319
6.68293
6.66484
6.64894
6.63513
6.62343
6.61374
6.60606
6.60032
6.59653
6.59464
6.89411
6.89455
6.86749
6.8357
6.8049
6.7757
6.74856
6.72366
6.70102
6.68067
6.66254
6.64663
6.63285
6.62117
6.61151
6.60385
6.59814
6.59437
6.59248
6.8975
6.9044
6.87309
6.8374
6.80459
6.7743
6.74652
6.72126
6.69843
6.67798
6.65984
6.64393
6.63018
6.61853
6.60891
6.60128
6.5956
6.59184
6.58996
1432.62
1424.4
1406.99
1380.54
1344.65
1298.72
1241.93
1173.09
1090.89
991.501
878.216
735.92
398.222
32.3743
8.1378
7.7452
7.73119
7.74667
7.75247
7.72725
7.67156
7.58357
7.38985
1465.11
1457.11
1440.39
1415.02
1380.63
1336.7
1282.54
1217.17
1139.56
1046.77
942.669
811.901
406.402
20.0288
7.78279
7.61379
7.6003
7.60335
7.59708
7.56805
7.51387
7.43356
7.3269
1504.27
1496.57
1480.68
1456.61
1424.04
1382.55
1331.59
1270.43
1198.38
1113.29
1019.54
901.877
411.454
13.1618
7.57239
7.4856
7.47431
7.47356
7.46316
7.43571
7.39104
7.33014
7.25746
1549.92
1542.59
1527.66
1505.08
1474.6
1435.89
1388.57
1332.15
1266.24
1189.34
1106.12
1001.55
409.879
9.88144
7.43885
7.3643
7.35728
7.3556
7.34441
7.32016
7.28308
7.23354
7.17261
1601.81
1594.9
1581.03
1560.09
1531.89
1496.21
1452.82
1401.4
1341.84
1273.12
1199.93
1107.58
401.959
8.28644
7.32379
7.25333
7.24921
7.24738
7.23675
7.21569
7.1845
7.14373
7.0946
1659.62
1653.19
1640.44
1621.24
1595.44
1562.94
1523.59
1477.26
1424
1363.17
1299.21
1217.98
388.817
7.88824
7.20799
7.15019
7.14853
7.14718
7.13785
7.11998
7.09406
7.06079
7.02134
1722.97
1717.05
1705.47
1688.06
1664.74
1635.45
1600.16
1558.86
1511.7
1458.28
1402.71
1331.48
372.15
7.56109
7.09177
7.05332
7.05451
7.05402
7.04624
7.03134
7.00993
6.98273
6.9507
1791.45
1786.07
1775.68
1760.07
1739.23
1713.15
1681.85
1645.41
1604.04
1557.5
1509.5
1447.32
352.766
7.32171
6.98762
6.96452
6.96742
6.9674
6.96089
6.94847
6.93078
6.90849
6.88239
1864.62
1859.79
1850.58
1836.76
1818.36
1795.4
1767.96
1736.16
1700.23
1660.05
1618.88
1564.97
331.392
7.15409
6.89871
6.88458
6.88726
6.88675
6.8809
6.87035
6.85565
6.83736
6.81609
1942.02
1937.73
1929.68
1917.61
1901.57
1881.63
1857.87
1830.44
1799.6
1765.27
1730.31
1684.06
308.65
7.05611
6.82611
6.81295
6.81317
6.81112
6.80523
6.79597
6.78368
6.76869
6.75144
2023.16
2019.42
2012.47
2002.09
1988.32
1971.25
1950.98
1927.67
1901.57
1872.66
1843.41
1804.31
285.028
7.00721
6.76194
6.74672
6.74334
6.73907
6.73264
6.72425
6.71396
6.70183
6.68806
2107.52
2104.29
2098.41
2089.63
2078.02
2063.67
2046.7
2027.25
2005.59
1981.73
1957.78
1925.5
260.978
6.92596
6.69777
6.68275
6.67569
6.66897
6.66175
6.65405
6.64559
6.63612
6.62555
2194.63
2191.9
2187.04
2179.79
2170.22
2158.43
2144.56
2128.75
2111.25
2092.09
2073.11
2047.41
237.085
6.83144
6.6386
6.61993
6.60858
6.59923
6.59126
6.58432
6.57778
6.57098
6.56357
2284.71
2282.47
2278.58
2272.77
2265.14
2255.79
2244.85
2232.5
2218.97
2204.24
2189.84
2170.06
213.585
6.74788
6.57958
6.55732
6.54012
6.52802
6.51971
6.51404
6.5098
6.50596
6.50185
2376.68
2374.82
2371.83
2367.36
2361.49
2354.37
2346.11
2336.95
2327.12
2316.65
2306.86
2292.96
184.03
6.65771
6.52878
6.49207
6.46715
6.45275
6.4453
6.44209
6.44105
6.44073
6.44026
2464.57
2463.03
2460.79
2457.46
2453.11
2447.86
2441.86
2435.37
2428.63
2421.94
2417.21
2411.93
160.586
6.6794
6.4861
6.41676
6.38456
6.37018
6.36611
6.36746
6.37104
6.37514
6.37884
2553.99
2552.92
2551.47
2549.26
2546.41
2543.04
2539.31
2535.44
2531.7
2528.29
2527.55
2525.36
357.787
6.9272
6.43593
6.31601
6.28432
6.27668
6.28067
6.28969
6.29972
6.30934
6.31779
2522.69
2520.06
2515.86
2509.52
2500.79
2489.76
2476.36
2460.02
2442.95
2405.38
2370.39
1999.83
604.339
12.477
6.32613
6.16452
6.15399
6.16873
6.18861
6.20944
6.22776
6.24389
6.25761
814.357
809.623
800.613
787.78
770.859
750.109
725.391
695.795
666.365
597.739
539.714
146.78
175.498
63.443
6.29155
5.90258
5.99056
6.04849
6.09333
6.12823
6.15653
6.17983
6.19904
4.51191
4.51852
4.52451
4.53401
4.54626
4.56107
4.5779
4.5968
4.61503
4.61333
4.57321
4.60933
3.93584
18.3594
9.53449
5.68828
5.81007
5.9276
5.99985
6.05017
6.0884
6.11864
6.14306
4.59219
4.596
4.60273
4.61272
4.62584
4.64213
4.66191
4.68515
4.7083
4.73329
4.76806
4.74892
4.65592
5.10451
6.07728
5.46936
5.6848
5.82858
5.91783
5.97983
6.02599
6.06196
6.09076
4.68774
4.69138
4.69872
4.70957
4.72393
4.74207
4.76438
4.79056
4.81969
4.85625
4.89783
4.90909
4.88811
5.02542
5.25709
5.48579
5.64912
5.76994
5.85708
5.92199
5.97187
6.01128
6.04308
4.77197
4.77573
4.78329
4.79455
4.80966
4.82892
4.85271
4.88104
4.91469
4.95591
4.99934
5.03567
5.09154
5.21769
5.38632
5.52927
5.64399
5.73875
5.81538
5.87703
5.92677
5.96726
6.00054
4.85253
4.8565
4.86418
4.87575
4.89144
4.91152
4.93627
4.96604
5.00179
5.04434
5.09172
5.14529
5.21707
5.3163
5.43174
5.54141
5.63604
5.71675
5.78481
5.8419
5.88965
5.92961
5.96313
4.92826
4.93214
4.93984
4.95152
4.96738
4.98769
5.01269
5.04277
5.07861
5.12055
5.16846
5.22467
5.29383
5.37665
5.46549
5.55178
5.63071
5.70067
5.76156
5.81405
5.85908
5.8976
5.93051
4.99923
5.00295
5.0106
5.02219
5.03786
5.05785
5.08243
5.11189
5.14667
5.18708
5.23349
5.28715
5.34926
5.41876
5.49136
5.56245
5.62912
5.68986
5.74412
5.79202
5.83396
5.87049
5.90221
5.06529
5.06896
5.07648
5.08778
5.10294
5.12222
5.14586
5.17406
5.20709
5.24515
5.28854
5.33765
5.39245
5.45162
5.51259
5.57263
5.62981
5.68287
5.7312
5.77465
5.81336
5.84759
5.87773
5.12688
5.13049
5.13772
5.14852
5.16299
5.1813
5.20366
5.23019
5.26104
5.29628
5.33598
5.3801
5.42819
5.47911
5.53119
5.58269
5.63217
5.67873
5.72178
5.76104
5.7965
5.82828
5.85658
5.18452
5.18796
5.19474
5.20488
5.21847
5.23565
5.25652
5.28115
5.30957
5.34175
5.3776
5.41688
5.45903
5.50317
5.5481
5.59266
5.6358
5.67678
5.71509
5.75045
5.78275
5.81202
5.83834
5.23846
5.24161
5.24785
5.25723
5.26986
5.28579
5.30504
5.32764
5.35353
5.38261
5.4147
5.44948
5.48645
5.52486
5.56389
5.60267
5.64041
5.67652
5.71058
5.74232
5.77158
5.79832
5.82259
5.2888
5.29162
5.2973
5.30593
5.31754
5.33215
5.34974
5.37027
5.39363
5.4197
5.44825
5.47895
5.51134
5.54487
5.57887
5.61271
5.64578
5.6776
5.70782
5.73618
5.76253
5.7868
5.80899
5.33577
5.33828
5.34344
5.35132
5.36191
5.3752
5.39112
5.4096
5.43052
5.45373
5.47899
5.506
5.53436
5.56362
5.59327
5.6228
5.65176
5.67972
5.70645
5.73167
5.75525
5.7771
5.7972
5.37977
5.38202
5.3867
5.39385
5.40343
5.4154
5.42968
5.44618
5.46477
5.4853
5.50752
5.53118
5.55593
5.58141
5.60722
5.63294
5.65823
5.68276
5.70622
5.72848
5.74941
5.76892
5.78695
5.42129
5.42333
5.42755
5.43398
5.44256
5.45323
5.4659
5.4805
5.49688
5.51488
5.5343
5.55489
5.57639
5.59847
5.62082
5.64311
5.66505
5.68638
5.70686
5.72637
5.74477
5.762
5.77799
5.46081
5.46264
5.46641
5.47211
5.47969
5.48908
5.50021
5.51297
5.52724
5.54287
5.55967
5.57745
5.59595
5.61493
5.63413
5.65328
5.67215
5.69053
5.70822
5.72511
5.7411
5.75611
5.77011
5.49867
5.50029
5.5036
5.50857
5.51516
5.5233
5.53291
5.54391
5.55617
5.56956
5.58391
5.59906
5.61479
5.63091
5.6472
5.66344
5.67946
5.69507
5.71014
5.72454
5.73821
5.75108
5.76312
5.5351
5.5365
5.53934
5.54359
5.5492
5.55612
5.56427
5.57356
5.5839
5.59516
5.6072
5.61988
5.63303
5.64647
5.66004
5.67358
5.68691
5.69992
5.71248
5.72451
5.73594
5.74673
5.75683
5.57029
5.57147
5.57384
5.57737
5.58202
5.58774
5.59447
5.60213
5.61062
5.61986
5.62971
5.64005
5.65075
5.66168
5.67269
5.68365
5.69446
5.70499
5.71515
5.72489
5.73416
5.74291
5.75112
5.60441
5.60536
5.60726
5.61008
5.6138
5.61836
5.62371
5.62978
5.63651
5.6438
5.65155
5.65967
5.66804
5.67657
5.68515
5.69367
5.70204
5.7102
5.71806
5.72558
5.73273
5.73949
5.74584
5.63752
5.63824
5.63968
5.64182
5.64462
5.64806
5.65208
5.65663
5.66166
5.66708
5.67283
5.67881
5.68496
5.69119
5.69743
5.7036
5.70964
5.71549
5.72111
5.72648
5.73156
5.73636
5.74087
5.66991
5.67039
5.67137
5.67284
5.67475
5.67709
5.67982
5.68289
5.68626
5.68988
5.69367
5.6976
5.70159
5.7056
5.70957
5.71346
5.71722
5.72082
5.72425
5.72748
5.73053
5.7334
5.73609
5.70314
5.70336
5.70385
5.70459
5.70556
5.70674
5.7081
5.70962
5.71126
5.71298
5.71476
5.71657
5.71835
5.7201
5.72177
5.72335
5.72482
5.72618
5.72741
5.72852
5.72954
5.73049
5.73138
7.10409
7.06376
7.05496
7.02384
7.22409
7.16851
7.11964
7.07354
7.18685
7.13902
7.09514
7.05553
7.11948
7.08506
7.05186
7.02002
7.05423
7.02777
7.00124
6.97514
6.98919
6.96798
6.94647
6.92502
6.9247
6.90753
6.88998
6.87231
6.86126
6.84727
6.8329
6.81833
6.79889
6.78749
6.77574
6.76377
6.73751
6.72827
6.71874
6.70899
6.67697
6.66961
6.66201
6.65422
6.61706
6.61141
6.60556
6.59955
6.55758
6.55356
6.54938
6.54504
6.49838
6.496
6.49346
6.49076
6.43945
6.43876
6.43788
6.43682
6.38088
6.38195
6.38279
6.3834
6.32291
6.32585
6.32846
6.33075
6.26598
6.27085
6.27527
6.27924
6.21068
6.21748
6.22366
6.22927
6.15777
6.16636
6.1742
6.18133
6.10809
6.11823
6.12748
6.13594
6.06235
6.07366
6.08402
6.09352
6.02098
6.03305
6.04415
6.05438
5.98405
5.99648
6.00798
6.01862
5.95136
5.96382
5.97541
5.98621
5.92257
5.93481
5.94626
5.95697
5.8973
5.90913
5.92025
5.9307
5.87516
5.88644
5.89709
5.90714
5.85578
5.86641
5.87648
5.88603
5.8388
5.84871
5.85814
5.86709
5.8239
5.83305
5.84178
5.85009
5.81079
5.81915
5.82714
5.83476
5.7992
5.80676
5.81399
5.8209
5.78891
5.79564
5.80211
5.8083
5.77969
5.78561
5.7913
5.79676
5.77137
5.77648
5.78139
5.78611
5.76378
5.76808
5.77222
5.7762
5.75677
5.76028
5.76365
5.7669
5.75022
5.75293
5.75554
5.75806
5.74398
5.74591
5.74777
5.74956
5.73795
5.7391
5.74022
5.74129
5.732
5.73238
5.73275
5.73311
6.9547
6.92184
6.88109
6.83945
6.80335
6.77134
6.74259
6.71678
6.69368
6.67312
6.65496
6.63908
6.62539
6.6138
6.60425
6.59669
6.59105
6.58733
6.58547
7.00039
6.93268
6.8816
6.83671
6.79799
6.76434
6.73466
6.70838
6.68507
6.66448
6.64639
6.63063
6.61709
6.60565
6.59624
6.58879
6.58325
6.57959
6.57777
6.99422
6.92665
6.87305
6.82727
6.78782
6.75364
6.72371
6.69736
6.67413
6.65371
6.63583
6.62031
6.607
6.59578
6.58656
6.57927
6.57386
6.57028
6.56849
6.96899
6.90737
6.8557
6.81126
6.77267
6.73903
6.70953
6.68359
6.66077
6.64075
6.62326
6.60811
6.59514
6.58421
6.57525
6.56816
6.5629
6.55942
6.55769
6.93252
6.87841
6.83103
6.78943
6.75282
6.72057
6.69215
6.66708
6.645
6.62563
6.60871
6.59407
6.58153
6.57099
6.56233
6.5555
6.55043
6.54708
6.54541
6.88955
6.8429
6.80064
6.76271
6.7288
6.69858
6.67172
6.64792
6.62689
6.60839
6.59223
6.57823
6.56624
6.55616
6.54788
6.54135
6.5365
6.53329
6.5317
6.84279
6.80298
6.76595
6.73203
6.70123
6.67345
6.64854
6.6263
6.60657
6.58916
6.57392
6.56068
6.54934
6.5398
6.53196
6.52577
6.52117
6.51813
6.51662
6.79381
6.76008
6.72807
6.69823
6.67073
6.64563
6.62291
6.60248
6.58424
6.56808
6.55388
6.54153
6.53093
6.52199
6.51465
6.50884
6.50453
6.50168
6.50026
6.74349
6.71519
6.68788
6.66202
6.63787
6.61557
6.59518
6.5767
6.56011
6.54532
6.53228
6.5209
6.51111
6.50284
6.49604
6.49065
6.48665
6.484
6.48268
6.69241
6.66897
6.64602
6.62398
6.60313
6.58366
6.56568
6.54925
6.53439
6.52108
6.50927
6.49894
6.49001
6.48246
6.47624
6.4713
6.46763
6.46519
6.46398
6.64091
6.62188
6.60298
6.58458
6.56695
6.55029
6.53474
6.5204
6.50732
6.49553
6.48502
6.47578
6.46777
6.46097
6.45535
6.45088
6.44755
6.44534
6.44424
6.58923
6.57426
6.55917
6.54423
6.52971
6.5158
6.50265
6.4904
6.47913
6.46889
6.45971
6.45158
6.44451
6.43849
6.43349
6.42951
6.42654
6.42456
6.42358
6.53754
6.5264
6.51489
6.50326
6.49173
6.48048
6.4697
6.45951
6.45004
6.44135
6.4335
6.4265
6.42038
6.41514
6.41078
6.40729
6.40468
6.40295
6.40208
6.48599
6.47851
6.47043
6.46196
6.45329
6.44462
6.43612
6.42796
6.42025
6.4131
6.40656
6.40069
6.39552
6.39106
6.38733
6.38434
6.3821
6.3806
6.37986
6.43475
6.43082
6.42603
6.42058
6.41465
6.40845
6.40217
6.39596
6.38997
6.38431
6.37906
6.3743
6.37006
6.36637
6.36327
6.36077
6.35889
6.35763
6.35701
6.38401
6.38356
6.38195
6.37938
6.37607
6.37223
6.36805
6.36371
6.35938
6.35516
6.35116
6.34746
6.34413
6.34119
6.33871
6.33669
6.33516
6.33414
6.33363
6.33405
6.33698
6.33842
6.33861
6.33778
6.33617
6.33398
6.33142
6.32865
6.3258
6.323
6.32032
6.31785
6.31565
6.31375
6.3122
6.31102
6.31022
6.30983
6.28519
6.29137
6.29571
6.29849
6.29999
6.30047
6.30015
6.29926
6.29795
6.2964
6.29471
6.29301
6.29136
6.28984
6.28851
6.2874
6.28655
6.28598
6.28569
6.23777
6.24703
6.25408
6.25927
6.26292
6.26532
6.26673
6.26738
6.26743
6.26707
6.26643
6.26563
6.26476
6.26389
6.26309
6.2624
6.26186
6.26149
6.2613
6.19219
6.20427
6.21378
6.22115
6.22676
6.23091
6.23389
6.23593
6.23723
6.23796
6.23828
6.23832
6.23816
6.23789
6.23758
6.23728
6.23703
6.23684
6.23674
6.14884
6.16337
6.17504
6.18434
6.19167
6.19738
6.20175
6.20505
6.20748
6.20916
6.21036
6.21116
6.21165
6.21193
6.21207
6.21212
6.21213
6.21212
6.2121
6.10807
6.12461
6.13809
6.14901
6.15782
6.16486
6.17044
6.17483
6.17822
6.18081
6.18278
6.18424
6.18532
6.18609
6.18663
6.187
6.18724
6.18739
6.18745
6.07011
6.08818
6.10307
6.1153
6.12531
6.13347
6.14007
6.14538
6.14961
6.15297
6.1556
6.15766
6.15924
6.16044
6.16134
6.16199
6.16244
6.16271
6.16285
6.03507
6.05417
6.07008
6.0833
6.09424
6.10328
6.1107
6.11677
6.12171
6.1257
6.1289
6.13146
6.13347
6.13505
6.13625
6.13714
6.13776
6.13816
6.13836
6.00297
6.02263
6.03917
6.05305
6.06466
6.07435
6.0824
6.08907
6.09456
6.09906
6.10273
6.1057
6.10807
6.10995
6.11141
6.1125
6.11328
6.11378
6.11403
5.97369
5.9935
6.01032
6.02456
6.03659
6.04671
6.0552
6.0623
6.06821
6.0731
6.07713
6.08042
6.08308
6.08521
6.08687
6.08813
6.08903
6.08961
6.0899
5.94708
5.96669
5.98348
5.99781
6.01001
6.02036
6.02911
6.03648
6.04267
6.04783
6.05212
6.05565
6.05853
6.06084
6.06266
6.06404
6.06504
6.06569
6.06601
5.92296
5.94206
5.95855
5.97273
5.98489
5.99528
6.00412
6.01162
6.01795
6.02328
6.02772
6.03141
6.03443
6.03687
6.0388
6.04028
6.04135
6.04204
6.04239
5.9011
5.91945
5.93542
5.94924
5.96116
5.97141
5.98019
5.98768
5.99405
5.99943
6.00394
6.0077
6.0108
6.01332
6.01532
6.01685
6.01797
6.01869
6.01906
5.88129
5.8987
5.91394
5.92722
5.93875
5.94871
5.95729
5.96465
5.97093
5.97627
5.98077
5.98453
5.98765
5.99019
5.99221
5.99377
5.99491
5.99565
5.99602
5.8633
5.87962
5.89398
5.90657
5.91756
5.9271
5.93536
5.94248
5.94858
5.95378
5.95819
5.96189
5.96497
5.96748
5.96949
5.97104
5.97218
5.97292
5.97328
5.84692
5.86203
5.8754
5.88717
5.8975
5.90651
5.91434
5.92111
5.92695
5.93194
5.93618
5.93976
5.94274
5.94518
5.94714
5.94866
5.94977
5.95049
5.95085
5.83195
5.84576
5.85804
5.8689
5.87846
5.88684
5.89415
5.9005
5.90599
5.9107
5.91471
5.91811
5.92095
5.92328
5.92515
5.92661
5.92767
5.92837
5.92871
5.8182
5.83064
5.84175
5.85162
5.86034
5.86801
5.87473
5.88058
5.88565
5.89002
5.89375
5.89691
5.89957
5.90175
5.90351
5.90488
5.90588
5.90653
5.90685
5.8055
5.81653
5.82642
5.83523
5.84304
5.84994
5.85599
5.86128
5.86588
5.86984
5.87325
5.87614
5.87857
5.88057
5.88218
5.88344
5.88436
5.88497
5.88526
5.79368
5.80327
5.81189
5.8196
5.82645
5.83252
5.83786
5.84253
5.84661
5.85013
5.85316
5.85574
5.85791
5.8597
5.86115
5.86228
5.86311
5.86365
5.86391
5.7826
5.79073
5.79805
5.80462
5.81047
5.81566
5.82025
5.82427
5.82778
5.83082
5.83344
5.83567
5.83756
5.83911
5.84037
5.84136
5.84208
5.84255
5.84278
5.77213
5.77878
5.78478
5.79018
5.795
5.79929
5.80307
5.8064
5.80932
5.81185
5.81403
5.81589
5.81746
5.81877
5.81982
5.82064
5.82125
5.82164
5.82183
5.76212
5.76729
5.77196
5.77617
5.77994
5.78329
5.78626
5.78888
5.79116
5.79316
5.79488
5.79635
5.79759
5.79862
5.79945
5.8001
5.80058
5.80089
5.80104
5.75245
5.75614
5.75948
5.76249
5.76519
5.76759
5.76972
5.7716
5.77325
5.77468
5.77592
5.77698
5.77788
5.77862
5.77923
5.7797
5.78004
5.78027
5.78038
5.74301
5.74522
5.74722
5.74903
5.75065
5.75209
5.75337
5.7545
5.7555
5.75636
5.75711
5.75775
5.75829
5.75874
5.75911
5.75939
5.7596
5.75974
5.7598
5.73368
5.73441
5.73508
5.73568
5.73622
5.7367
5.73713
5.73751
5.73784
5.73813
5.73838
5.73859
5.73878
5.73893
5.73905
5.73915
5.73922
5.73926
5.73928
)
;

boundaryField
{
    leftWall
    {
        type            fixedFluxPressure;
        gradient        uniform 0;
        value           nonuniform List<scalar> 
50
(
1371.66
1373.15
1376.14
1380.64
1386.66
1394.21
1403.26
1413.78
1432.62
1465.11
1504.27
1549.92
1601.81
1659.62
1722.97
1791.45
1864.62
1942.02
2023.16
2107.52
2194.63
2284.71
2376.68
2464.57
2553.99
2522.69
814.357
4.51191
4.59219
4.68774
4.77197
4.85253
4.92826
4.99923
5.06529
5.12688
5.18452
5.23846
5.2888
5.33577
5.37977
5.42129
5.46081
5.49867
5.5351
5.57029
5.60441
5.63752
5.66991
5.70314
)
;
    }
    rightWall
    {
        type            fixedFluxPressure;
        gradient        uniform 0;
        value           nonuniform List<scalar> 
50
(
6.6
6.59966
6.59895
6.59787
6.59643
6.59464
6.59248
6.58996
6.58547
6.57777
6.56849
6.55769
6.54541
6.5317
6.51662
6.50026
6.48268
6.46398
6.44424
6.42358
6.40208
6.37986
6.35701
6.33363
6.30983
6.28569
6.2613
6.23674
6.2121
6.18745
6.16285
6.13836
6.11403
6.0899
6.06601
6.04239
6.01906
5.99602
5.97328
5.95085
5.92871
5.90685
5.88526
5.86391
5.84278
5.82183
5.80104
5.78038
5.7598
5.73928
)
;
    }
    lowerWall
    {
        type            fixedFluxPressure;
        gradient        uniform 0;
        value           nonuniform List<scalar> 
62
(
1371.66
1363.13
1344.55
1316.25
1277.88
1228.78
1168.08
1094.55
1007.01
902.081
778.744
640.964
455.724
218.647
60.7747
14.5478
9.70123
9.2427
8.82232
8.5265
8.33801
8.225
8.1721
8.1721
8.15521
8.11661
8.05851
7.9827
7.88932
7.7758
7.64106
7.10409
7.06376
7.05496
7.02384
6.8747
6.87584
6.87813
6.88153
6.88613
6.89143
6.89411
6.8975
6.8747
6.86668
6.84999
6.82802
6.80352
6.77836
6.75368
6.73022
6.70838
6.68845
6.6705
6.65463
6.6408
6.62904
6.61928
6.61154
6.60575
6.60193
6.6
)
;
    }
    atmosphere
    {
        type            prghTotalPressure;
        rho             rho;
        psi             none;
        gamma           1;
        p0              uniform 0;
        value           nonuniform List<scalar> 
46
(
5.72085
5.72089
5.72112
5.72145
5.72189
5.72241
5.723
5.72365
5.72433
5.72503
5.72571
5.72637
5.72698
5.72752
5.72799
5.72838
5.72867
5.72888
5.729
5.72904
5.72904
5.72904
5.72904
5.72904
5.72904
5.72904
5.72904
5.72904
5.72904
5.72904
5.72904
5.72904
5.72904
5.72904
5.72904
5.72904
5.72904
5.72904
5.72904
5.72904
5.72904
5.72904
5.72904
5.72904
5.72904
5.72904
)
;
        rho             rho;
    }
    defaultFaces
    {
        type            empty;
    }
}


// ************************************************************************* //
