/*--------------------------------*- C++ -*----------------------------------*\
  =========                 |
  \\      /  F ield         | OpenFOAM: The Open Source CFD Toolbox
   \\    /   O peration     | Website:  https://openfoam.org
    \\  /    A nd           | Version:  13
     \\/     M anipulation  |
\*---------------------------------------------------------------------------*/
FoamFile
{
    format      ascii;
    class       surfaceScalarField;
    location    "0.3";
    object      alphaPhi.water;
}
// * * * * * * * * * * * * * * * * * * * * * * * * * * * * * * * * * * * * * //

dimensions      [0 3 -1 0 0 0 0];

internalField   nonuniform List<scalar> 
4432
(
-8.72646e-07
8.72646e-07
2.82011e-06
-3.69274e-06
8.92743e-06
-6.10733e-06
1.54421e-05
-6.51463e-06
2.12875e-05
-5.84538e-06
2.6211e-05
-4.92354e-06
3.03645e-05
-4.15353e-06
3.39944e-05
-3.62991e-06
3.72954e-05
-3.30098e-06
4.03624e-05
-3.06695e-06
4.31924e-05
-2.83003e-06
4.57049e-05
-2.51247e-06
4.77587e-05
-2.05385e-06
4.9138e-05
-1.37927e-06
4.93794e-05
-2.41468e-07
4.75926e-05
1.78682e-06
4.25173e-05
5.07532e-06
3.27031e-05
9.81421e-06
1.77362e-05
1.49668e-05
6.20189e-09
1.773e-05
-1.06938e-05
1.21758e-05
-1.35824e-05
2.68465e-06
-1.37883e-05
-7.921e-07
1.66474e-06
2.96762e-06
-7.45246e-06
9.09422e-06
-1.22339e-05
1.55863e-05
-1.30067e-05
2.14016e-05
-1.16607e-05
2.63081e-05
-9.82998e-06
3.0467e-05
-8.31245e-06
3.41266e-05
-7.28947e-06
3.7476e-05
-6.65039e-06
4.06028e-05
-6.19377e-06
4.34986e-05
-5.72588e-06
4.60821e-05
-5.09598e-06
4.82171e-05
-4.18884e-06
4.97326e-05
-2.8947e-06
5.062e-05
-1.12892e-06
5.0988e-05
1.41885e-06
5.07494e-05
5.31395e-06
4.8633e-05
1.19306e-05
4.15974e-05
2.20024e-05
2.67345e-05
3.25929e-05
6.18052e-06
3.31781e-05
-3.75602e-06
1.35325e-05
-1.98982e-05
-6.28182e-07
2.29292e-06
3.20658e-06
-1.12872e-05
9.32714e-06
-1.83545e-05
1.5726e-05
-1.94055e-05
2.14235e-05
-1.73583e-05
2.62393e-05
-1.46457e-05
3.03581e-05
-1.24313e-05
3.4029e-05
-1.09604e-05
3.74283e-05
-1.00497e-05
4.06274e-05
-9.3929e-06
4.36068e-05
-8.7052e-06
4.62808e-05
-7.77006e-06
4.85215e-05
-6.42953e-06
5.01758e-05
-4.54901e-06
5.10344e-05
-1.98746e-06
5.09588e-05
1.49441e-06
5.00358e-05
6.23691e-06
4.89521e-05
1.30143e-05
4.77001e-05
2.32544e-05
4.31054e-05
3.71877e-05
3.05587e-05
4.57248e-05
1.33991e-05
3.06874e-05
-6.5074e-06
-3.83002e-07
2.67592e-06
3.55809e-06
-1.52283e-05
9.65772e-06
-2.44541e-05
1.59181e-05
-2.56659e-05
2.14484e-05
-2.28887e-05
2.61432e-05
-1.93405e-05
3.02187e-05
-1.65067e-05
3.39197e-05
-1.46614e-05
3.74008e-05
-1.35308e-05
4.071e-05
-1.27021e-05
4.38123e-05
-1.18074e-05
4.66174e-05
-1.05751e-05
4.90009e-05
-8.81303e-06
5.08162e-05
-6.36437e-06
5.18962e-05
-3.06746e-06
5.20794e-05
1.31122e-06
5.12394e-05
7.07691e-06
4.96301e-05
1.46236e-05
4.84677e-05
2.44168e-05
4.78788e-05
3.77766e-05
4.21121e-05
5.14915e-05
2.50123e-05
4.77832e-05
1.82539e-05
-4.34039e-08
2.71932e-06
3.99852e-06
-1.92702e-05
1.00501e-05
-3.05057e-05
1.61256e-05
-3.17414e-05
2.14479e-05
-2.8211e-05
2.6003e-05
-2.38956e-05
3.00405e-05
-2.05442e-05
3.37931e-05
-1.8414e-05
3.73844e-05
-1.7122e-05
4.08333e-05
-1.6151e-05
4.4087e-05
-1.50612e-05
4.70509e-05
-1.3539e-05
4.96062e-05
-1.13684e-05
5.16205e-05
-8.37865e-06
5.29516e-05
-4.39856e-06
5.34717e-05
7.91153e-07
5.30891e-05
7.45951e-06
5.17571e-05
1.59555e-05
4.98285e-05
2.63454e-05
4.86481e-05
3.89569e-05
4.54439e-05
5.46957e-05
3.07213e-05
6.25058e-05
4.87233e-05
2.57061e-07
2.46226e-06
4.50016e-06
-2.35133e-05
1.04794e-05
-3.64849e-05
1.63267e-05
-3.75887e-05
2.14119e-05
-3.32962e-05
2.5823e-05
-2.83067e-05
2.98378e-05
-2.4559e-05
3.36659e-05
-2.22421e-05
3.73917e-05
-2.08478e-05
4.10015e-05
-1.97609e-05
4.44254e-05
-1.84851e-05
4.75662e-05
-1.66798e-05
5.03139e-05
-1.41161e-05
5.25511e-05
-1.06159e-05
5.41559e-05
-6.00331e-06
5.50214e-05
-7.44114e-08
5.50693e-05
7.41165e-06
5.42642e-05
1.67606e-05
5.23872e-05
2.82225e-05
4.99397e-05
4.14044e-05
4.63575e-05
5.82779e-05
3.33387e-05
7.55246e-05
8.18138e-05
6.3289e-07
1.82938e-06
5.05846e-06
-2.79389e-05
1.09296e-05
-4.2356e-05
1.65101e-05
-4.31692e-05
2.13436e-05
-3.81297e-05
2.56214e-05
-3.25845e-05
2.96376e-05
-2.85752e-05
3.35666e-05
-2.61711e-05
3.74475e-05
-2.47287e-05
4.1234e-05
-2.35474e-05
4.48423e-05
-2.20934e-05
4.81772e-05
-2.00147e-05
5.11394e-05
-1.70784e-05
5.3624e-05
-1.31004e-05
5.55215e-05
-7.90079e-06
5.67344e-05
-1.28736e-06
5.71926e-05
6.95346e-06
5.68676e-05
1.70856e-05
5.55266e-05
2.95635e-05
5.27984e-05
4.41326e-05
4.83136e-05
6.27627e-05
3.7388e-05
8.64502e-05
0.000118961
1.05383e-06
7.7555e-07
5.65534e-06
-3.25404e-05
1.13842e-05
-4.80849e-05
1.66792e-05
-4.84643e-05
2.12703e-05
-4.27208e-05
2.54425e-05
-3.67567e-05
2.94916e-05
-3.26243e-05
3.35476e-05
-3.0227e-05
3.76026e-05
-2.87837e-05
4.1582e-05
-2.75268e-05
4.53942e-05
-2.59056e-05
4.89501e-05
-2.35705e-05
5.21598e-05
-2.02881e-05
5.49233e-05
-1.58639e-05
5.71318e-05
-1.01094e-05
5.86916e-05
-2.84716e-06
5.95462e-05
6.09891e-06
5.96595e-05
1.69723e-05
5.89361e-05
3.02869e-05
5.68519e-05
4.62168e-05
5.22468e-05
6.73678e-05
4.13974e-05
9.72996e-05
0.00016012
2.64637e-13
-5.79938e-13
2.97424e-14
0
2.92343e-16
9.41784e-15
1.10809e-17
9.03002e-17
4.49274e-19
3.01599e-19
1.75864e-20
-4.69818e-21
8.15161e-22
-1.4522e-21
4.12044e-23
-9.19583e-23
2.11974e-24
-4.03659e-24
1.04418e-25
-1.28237e-25
4.79941e-27
-7.52091e-28
2.11171e-28
7.53485e-29
8.29043e-30
7.04299e-30
2.77984e-31
4.35093e-31
7.48067e-33
2.07386e-32
1.47141e-34
7.63823e-34
2.3378e-36
2.06621e-35
7.16544e-37
4.91528e-37
1.23439e-38
7.03382e-12
-9.10271e-12
1.19736e-12
0
8.39732e-15
4.75759e-13
8.45038e-17
7.1309e-15
1.23789e-17
4.16167e-17
7.88105e-19
-3.71921e-19
3.35966e-20
-1.02606e-19
1.80425e-21
-6.18637e-21
1.01194e-22
-2.56274e-22
5.49256e-24
-8.57281e-24
2.81867e-25
-1.53591e-25
1.38506e-26
1.11168e-26
6.21635e-28
1.45488e-27
2.41145e-29
1.09689e-28
7.58837e-31
6.22452e-30
1.7538e-32
2.72031e-31
3.47175e-34
1.09523e-32
2.60006e-36
2.92244e-34
1.89124e-36
1.29494e-10
-1.71603e-10
2.42529e-11
0
1.50159e-13
1.16625e-11
2.43256e-15
1.28779e-13
8.40298e-18
1.47385e-15
9.30305e-18
-1.09703e-17
6.85139e-19
-2.47862e-18
3.22553e-20
-1.28442e-19
1.83989e-21
-4.78513e-21
1.00606e-22
-1.6266e-22
5.02682e-24
-2.52842e-24
2.49336e-25
2.7013e-25
1.10362e-26
3.73318e-26
4.17718e-28
2.82194e-27
1.27589e-29
1.58401e-28
3.63738e-31
8.25976e-30
7.8223e-33
3.09125e-31
8.04344e-35
7.51923e-33
5.70801e-35
1.35087e-09
-1.91075e-09
2.87783e-10
0
1.39462e-12
1.62653e-10
2.61133e-14
1.24012e-12
2.8161e-16
1.79991e-14
4.8368e-17
-1.86006e-16
5.83024e-18
-2.06155e-17
3.96111e-19
-1.2653e-18
2.75625e-20
-8.24199e-20
2.71361e-21
-3.82645e-21
6.07843e-23
-1.26978e-22
3.20363e-24
6.99098e-24
1.50599e-25
6.51024e-25
5.4372e-27
4.96095e-26
2.0091e-28
3.28477e-27
6.24784e-30
1.66867e-28
1.37925e-31
5.7714e-30
1.61439e-33
1.36187e-31
1.26329e-33
7.93317e-09
-1.24945e-08
1.79649e-09
0
6.74645e-12
8.90303e-10
1.4012e-13
6.3825e-12
1.95389e-15
1.08089e-13
3.62256e-16
-7.62725e-16
4.21402e-17
-6.12154e-17
7.6855e-18
-1.61111e-18
1.07647e-18
-2.15783e-18
1.67928e-19
-2.12749e-19
4.80308e-21
-1.90226e-20
8.69613e-23
2.59907e-22
4.58106e-24
2.37628e-23
1.92014e-25
1.83312e-24
8.28051e-27
1.38895e-25
2.61612e-28
6.8534e-27
5.74254e-30
2.32822e-28
5.9811e-32
5.49601e-30
5.38482e-32
2.65148e-08
-6.2387e-08
5.22448e-09
-6.40465e-09
1.48757e-11
1.81373e-09
3.97964e-13
1.67387e-11
2.17604e-14
3.64381e-13
1.38791e-15
-1.89073e-15
1.08986e-15
-2.02985e-15
5.23538e-16
0
6.73847e-17
0
7.79776e-18
-3.07621e-18
2.72381e-19
-9.34788e-19
4.64272e-21
1.51035e-20
2.63352e-22
1.49496e-21
1.21457e-23
1.18832e-22
5.39409e-25
8.85806e-24
1.8286e-26
4.6467e-25
4.19232e-28
1.63013e-26
4.29448e-30
3.94973e-28
3.99511e-30
4.52921e-08
-1.4003e-07
8.71728e-11
6.99889e-09
0
2.38525e-09
1.19505e-12
7.31923e-12
8.96194e-14
1.20207e-12
9.89573e-14
-1.29687e-13
5.73417e-14
0
2.59482e-14
0
2.54329e-15
0
2.66156e-16
-2.19521e-17
1.1824e-17
-2.41356e-17
2.18994e-19
7.3205e-19
1.23742e-20
8.19842e-20
6.0456e-22
6.78802e-21
3.10973e-23
5.11346e-22
1.09616e-24
2.74488e-23
2.57149e-26
9.98391e-25
2.77236e-28
2.44818e-26
2.62773e-28
-1.60277e-09
-8.12814e-08
-9.67099e-09
8.70756e-08
-6.45436e-11
-7.24436e-09
1.48029e-12
-6.35533e-11
4.02773e-12
0
6.23541e-12
-2.2444e-12
2.44005e-12
0
7.56096e-13
0
4.80233e-14
0
5.51415e-15
0
3.76464e-16
-9.07392e-16
8.60501e-18
3.62548e-17
4.86576e-19
4.83904e-18
2.79868e-20
3.57431e-19
1.47661e-21
2.42511e-20
5.35034e-23
1.33342e-21
1.2791e-24
4.93429e-23
1.4886e-26
1.22764e-24
1.41695e-26
3.64365e-06
-2.8681e-06
1.39811e-05
-4.28778e-05
2.57202e-05
-5.9824e-05
3.60712e-05
-5.88152e-05
4.51386e-05
-5.17883e-05
5.38244e-05
-4.54424e-05
6.26816e-05
-4.14815e-05
7.17981e-05
-3.93435e-05
8.10132e-05
-3.79988e-05
9.01025e-05
-3.66161e-05
9.88721e-05
-3.46751e-05
0.00010716
-3.18588e-05
0.0001148
-2.79276e-05
0.000121601
-2.26647e-05
0.000127377
-1.58856e-05
0.00013197
-7.44052e-06
0.00013531
2.75958e-06
0.000137233
1.50487e-05
0.000137842
2.96782e-05
0.000137101
4.69577e-05
0.000136001
6.84674e-05
0.000141488
9.18132e-05
0.000130576
0.000170543
5.68605e-06
-8.55415e-06
1.66892e-05
-5.38809e-05
2.7585e-05
-7.07198e-05
3.67328e-05
-6.79629e-05
4.50862e-05
-6.01416e-05
5.37328e-05
-5.4089e-05
6.30048e-05
-5.07534e-05
7.27136e-05
-4.90523e-05
8.25354e-05
-4.78206e-05
9.22007e-05
-4.62813e-05
0.000101547
-4.40214e-05
0.000110457
-4.0769e-05
0.000118839
-3.63085e-05
0.000126607
-3.04327e-05
0.000133736
-2.30146e-05
0.000140402
-1.41064e-05
0.000146339
-3.1763e-06
0.000151683
9.7046e-06
0.000156281
2.50805e-05
0.000161194
4.20444e-05
0.000169592
6.00698e-05
0.000184534
7.68713e-05
0.000100167
0.000214986
7.98439e-06
-1.65385e-05
1.92713e-05
-6.51678e-05
2.88232e-05
-8.02698e-05
3.66816e-05
-7.58197e-05
4.45077e-05
-6.79664e-05
5.32065e-05
-6.27867e-05
6.26906e-05
-6.02366e-05
7.25099e-05
-5.887e-05
8.23001e-05
-5.76085e-05
9.18687e-05
-5.58473e-05
0.000101173
-5.33221e-05
0.000110173
-4.97661e-05
0.000119008
-4.51405e-05
0.000127903
-3.93125e-05
0.000136739
-3.18572e-05
0.000145157
-2.25234e-05
0.000153511
-1.14845e-05
0.000162528
6.80415e-07
0.000169245
1.83639e-05
0.000176454
3.48351e-05
0.000186318
5.02053e-05
0.00019833
6.48596e-05
7.83522e-05
0.000220145
1.09498e-05
-2.74882e-05
2.19711e-05
-7.61826e-05
2.92551e-05
-8.75276e-05
3.55126e-05
-8.2053e-05
4.28966e-05
-7.533e-05
5.16411e-05
-7.15124e-05
6.11461e-05
-6.97203e-05
7.08939e-05
-6.85832e-05
8.07109e-05
-6.73779e-05
9.06823e-05
-6.57424e-05
0.000101055
-6.36256e-05
0.000111844
-6.04787e-05
0.00012221
-5.25298e-05
0.00013079
-4.15004e-05
0.000137819
-3.02499e-05
0.000143605
-1.97037e-05
0.000149499
-1.08485e-05
0.000154975
-2.58101e-06
0.000167569
6.36203e-06
0.00018277
1.82143e-05
0.000197476
3.54993e-05
0.000207232
5.51038e-05
6.48328e-05
0.000220751
1.56604e-05
-4.31419e-05
2.66449e-05
-8.69728e-05
3.00914e-05
-9.06397e-05
3.42047e-05
-8.58507e-05
4.1523e-05
-8.23539e-05
5.0981e-05
-8.02579e-05
6.08809e-05
-7.43057e-05
6.96716e-05
-6.50038e-05
7.62548e-05
-5.34646e-05
7.93024e-05
-4.08248e-05
7.748e-05
-2.75165e-05
6.72634e-05
-7.005e-06
5.40538e-05
-1.21471e-06
4.22427e-05
-2.06138e-07
3.1963e-05
-3.81862e-08
2.33642e-05
-7.39711e-09
1.78599e-05
-3.70198e-09
1.65785e-05
-4.15217e-09
2.36134e-05
4.94995e-07
4.14991e-05
7.49617e-07
7.42754e-05
1.12307e-06
0.000123501
2.0936e-06
8.84573e-06
0.000176581
2.27344e-05
-6.00547e-05
2.56051e-05
-4.7611e-05
2.42083e-05
-3.14048e-05
2.55755e-05
-2.99329e-05
2.84058e-05
-2.6388e-05
2.95258e-05
-1.23364e-05
2.70652e-05
-7.86348e-07
2.2504e-05
-5.81479e-08
1.66108e-05
-4.69551e-09
9.92582e-06
-4.22189e-10
8.47163e-06
-4.4909e-11
1.46664e-06
-5.0694e-12
2.51929e-07
-1.3439e-12
4.59729e-08
-1.11642e-10
9.95157e-09
-1.73671e-09
4.85056e-09
-2.22569e-09
5.65706e-09
-2.63665e-09
6.51567e-09
-7.06529e-10
4.92648e-07
1.12809e-08
1.15686e-06
8.70791e-08
2.11927e-06
1.65946e-07
3.94881e-06
2.76316e-07
5.2318e-07
1.19779e-05
1.23233e-05
8.72201e-23
2.07326e-06
-7.68304e-24
2.18767e-06
-1.62352e-21
2.1818e-06
-1.40491e-19
2.1054e-06
-7.16554e-18
8.49661e-07
-9.31049e-17
6.33137e-08
-6.08138e-16
5.16577e-09
-1.00639e-15
4.70323e-10
-6.34994e-14
4.81408e-11
-1.08432e-14
6.42028e-12
-4.35491e-12
2.74543e-12
-2.23375e-12
2.56444e-12
-1.85937e-12
2.45837e-11
-1.32554e-10
1.57929e-09
-3.2215e-09
4.64378e-09
-4.86202e-09
8.80767e-09
-4.42796e-09
1.19613e-08
-2.81448e-09
2.49342e-08
1.12742e-09
1.01432e-07
1.16205e-08
2.41673e-07
2.25265e-08
4.8703e-07
3.70298e-08
6.13442e-08
9.56548e-07
-1.1069e-23
4.24537e-24
1.55261e-25
-1.89073e-23
5.714e-23
-1.6676e-21
5.97239e-21
-1.44571e-19
3.14496e-19
-7.29151e-18
4.43571e-18
-8.81195e-17
2.55156e-17
-5.11174e-16
1.01941e-16
-2.3163e-16
2.73077e-15
-6.5639e-14
7.19531e-15
-2.10811e-14
1.2062e-12
-5.55784e-12
2.60695e-12
-5.12744e-12
3.64198e-12
-3.72646e-12
4.8762e-10
-6.36725e-10
1.49831e-08
-1.38064e-08
6.23801e-08
-7.2368e-08
6.54618e-08
-2.38824e-08
1.92483e-08
-2.69619e-09
1.68958e-08
2.77372e-09
2.12803e-08
5.72473e-09
3.29457e-08
9.27883e-09
5.44639e-08
1.27556e-08
1.7481e-08
1.01437e-07
-8.92305e-25
2.45949e-24
-2.81335e-26
-8.35576e-23
3.8999e-22
-7.78239e-21
5.99335e-20
-5.55667e-19
3.46867e-18
-2.6541e-17
4.9332e-17
-3.60193e-16
2.49331e-16
-2.39621e-15
3.22242e-16
-2.50202e-16
5.42384e-14
-2.26737e-13
1.33889e-13
-7.92416e-14
1.03817e-11
-4.51973e-11
1.14049e-11
-1.44536e-11
1.55802e-11
-9.01867e-12
9.46693e-09
-9.70366e-09
1.44288e-07
-1.25541e-07
1.26493e-07
-1.63384e-07
2.03118e-08
-2.24377e-08
1.60439e-08
-1.08922e-09
1.44323e-08
3.09857e-09
1.36577e-08
4.29389e-09
1.55366e-08
5.25605e-09
1.91082e-08
6.9984e-09
7.24964e-09
2.7289e-08
-2.77127e-24
3.16615e-24
1.40218e-23
-1.82396e-22
3.47771e-21
-2.25464e-20
5.92162e-19
-3.00769e-18
3.56096e-17
-1.44019e-16
4.28595e-16
-1.51684e-15
1.16907e-15
-3.74738e-15
1.28689e-15
-4.23135e-16
2.10341e-13
-2.92764e-13
1.16773e-12
-1.02638e-12
5.85731e-11
-1.87662e-10
4.10481e-11
-1.05948e-10
4.30733e-11
-1.19369e-11
4.11177e-08
-7.07714e-09
8.8668e-08
-1.92806e-07
9.53286e-08
-1.54165e-07
4.6018e-09
-3.90888e-08
8.993e-09
-4.42597e-08
9.73376e-09
2.01947e-10
1.46213e-08
4.69394e-09
1.74423e-07
1.05815e-08
5.13187e-07
1.37379e-08
5.50214e-09
5.35423e-07
-1.53678e-25
1.38401e-24
3.14261e-23
-1.91124e-22
6.45015e-21
-2.67433e-20
1.48228e-18
-5.06364e-18
8.64684e-17
-2.40714e-16
5.23119e-16
-2.01888e-15
1.30533e-15
-3.87964e-15
1.32725e-15
-5.7663e-16
3.93543e-13
-2.08368e-13
3.37582e-13
-3.16618e-13
5.72518e-11
-1.69191e-10
6.00095e-11
-1.70031e-10
5.64885e-11
-6.9106e-12
1.93848e-08
-4.17063e-09
3.60684e-08
-8.72451e-08
6.67154e-08
-1.7348e-07
5.5089e-08
-1.8109e-07
1.09982e-07
-8.15236e-08
1.74008e-07
-3.8948e-08
2.35048e-07
-2.56629e-08
2.49983e-07
-3.48563e-09
3.05208e-07
-8.24456e-10
-1.80979e-09
8.00225e-08
-9.67136e-26
-6.05922e-26
3.24244e-23
-1.68072e-22
6.77817e-21
-2.61343e-20
1.86491e-18
-5.68537e-18
1.05534e-16
-2.67684e-16
6.5362e-16
-2.0079e-15
1.19652e-15
-3.76497e-15
9.14651e-16
-6.44888e-16
1.31047e-13
-2.50942e-14
1.37059e-12
-1.20099e-12
3.32576e-11
-1.21142e-10
2.05486e-11
-1.02098e-11
1.90965e-11
-4.99914e-12
1.34544e-09
-1.12632e-12
6.61144e-09
-6.22831e-14
2.60709e-08
-3.29468e-15
3.68889e-08
-8.71522e-08
5.07304e-08
-4.7917e-09
6.4871e-08
-2.0647e-10
3.17165e-08
-1.28611e-11
4.93863e-09
-1.09995e-12
2.17673e-09
-1.34561e-13
-1.08022e-14
3.66959e-10
4.20032e-27
-6.76143e-25
2.18902e-23
-7.96568e-23
5.47255e-21
-1.47619e-20
1.89843e-18
-5.46992e-18
1.03961e-16
-2.5141e-16
6.56513e-16
-1.44548e-15
1.05002e-15
-2.66728e-15
6.60482e-16
-9.03399e-16
1.40738e-13
-2.4443e-14
1.17524e-12
-1.76746e-12
7.58937e-12
-2.34179e-12
2.17324e-13
-2.37562e-12
8.32312e-13
-4.93225e-12
2.86233e-14
-3.06716e-13
1.64045e-15
-1.697e-14
2.58105e-16
-2.9773e-15
5.01226e-09
-2.06805e-15
2.20562e-10
-1.03891e-15
1.40938e-11
-1.6206e-15
1.23522e-12
-2.26893e-15
1.40102e-13
-4.28644e-15
1.2715e-14
-5.84856e-15
-6.78742e-15
1.51906e-14
4.32466e-26
-6.55122e-25
8.20337e-24
-2.128e-23
2.34685e-21
-4.26327e-21
1.4372e-18
-2.9763e-18
7.28586e-17
-1.25496e-16
3.57783e-16
-5.94726e-16
5.37264e-16
-1.19529e-15
1.09769e-15
-1.98006e-15
6.81835e-15
-9.85872e-16
5.44814e-13
-1.26512e-13
2.83501e-13
-1.74621e-12
3.53262e-13
-2.05025e-12
5.72857e-13
-1.09824e-12
3.20959e-15
-3.31795e-14
4.76681e-16
-1.55158e-14
5.54873e-16
-4.76693e-15
2.80779e-16
-1.76389e-15
3.38749e-16
-8.22513e-16
4.62363e-16
-1.6938e-15
7.11601e-16
-2.48359e-15
1.30211e-15
-4.57432e-15
3.84315e-15
-7.10154e-15
-1.44056e-14
1.99194e-14
2.91813e-26
-1.61928e-25
1.85221e-24
-3.47625e-24
5.82015e-22
-8.27381e-22
5.95306e-19
-8.88347e-19
2.74351e-17
-3.47095e-17
1.25694e-16
-1.49387e-16
2.20041e-16
-4.61668e-16
5.97526e-16
-1.08771e-15
1.0141e-15
-9.21217e-16
1.24367e-13
-1.9154e-13
3.18503e-13
-1.72501e-12
6.81359e-13
-1.88677e-12
2.13142e-14
-7.35444e-13
5.42722e-15
-4.01181e-14
3.98213e-15
-1.58565e-14
1.06154e-15
-6.52209e-15
3.64875e-16
-1.00448e-15
3.97565e-16
-6.18152e-16
1.31814e-15
-1.01943e-15
4.02354e-15
-1.84301e-15
9.39175e-15
-3.22261e-15
1.79372e-14
-5.0809e-15
-1.23583e-14
4.41711e-14
4.55798e-27
-1.9348e-26
2.67396e-25
-3.4474e-25
1.08551e-22
-2.08975e-22
1.51304e-19
-1.72339e-19
6.44705e-18
-6.27185e-18
2.99051e-17
-2.78523e-17
1.19268e-16
-1.64071e-16
3.18173e-16
-9.33797e-16
8.08019e-16
-9.34701e-16
2.19594e-13
-1.33983e-13
7.14901e-13
-1.2425e-12
5.6105e-13
-1.06377e-12
4.64498e-14
-2.62108e-13
5.87277e-15
-1.91775e-14
4.14049e-15
-6.93343e-15
1.53862e-15
-2.91383e-15
3.68539e-16
-4.19186e-16
4.02546e-16
-1.32687e-16
8.37121e-16
-2.32812e-16
1.81386e-15
-6.35499e-16
3.99751e-15
-1.66633e-15
8.60377e-15
-3.62792e-15
-1.50016e-14
3.29755e-14
4.66444e-28
-1.91274e-27
2.42437e-26
-3.02347e-26
3.02435e-23
-1.13502e-22
2.60939e-20
-2.29114e-20
1.04247e-18
-7.47183e-19
5.33974e-18
-3.65788e-18
4.38529e-17
-5.50105e-17
2.24307e-16
-6.60121e-16
1.29478e-15
-1.59797e-15
6.28465e-14
-7.75573e-15
1.94126e-13
-1.34069e-15
8.06762e-14
-2.66648e-16
1.60731e-14
-2.45168e-17
1.82111e-15
-1.64875e-15
1.05235e-15
-8.08853e-16
4.11732e-16
-2.18919e-16
5.65413e-17
-2.4834e-17
5.27928e-17
-2.39025e-17
1.72353e-16
-8.18954e-17
6.74847e-16
-3.45503e-16
2.19611e-15
-1.15869e-15
6.3687e-15
-3.10347e-15
-1.73494e-14
3.51644e-14
4.08255e-29
-1.54662e-28
2.14556e-27
-7.00388e-27
1.61577e-23
-6.03062e-23
3.14327e-21
-2.286e-21
1.13364e-19
-5.40078e-20
6.63845e-19
-3.11869e-19
1.43839e-17
-1.46113e-17
2.04188e-16
-2.57405e-16
6.14526e-16
-6.21599e-16
1.09539e-15
-2.51823e-16
7.65839e-17
-1.86825e-16
2.14025e-17
-9.59208e-17
9.23597e-18
-2.69845e-17
3.41908e-16
-1.44658e-17
1.15069e-16
-1.83454e-17
2.0294e-17
-1.29688e-17
7.29894e-18
-3.93223e-18
1.11271e-17
-6.03685e-18
7.19513e-17
-3.68398e-17
3.86183e-16
-2.17517e-16
1.51558e-15
-8.9292e-16
5.2568e-15
-2.89796e-15
-1.90971e-14
3.5994e-14
2.95161e-30
-8.91524e-30
5.01607e-28
-1.63487e-27
7.19118e-24
-1.47079e-23
2.85751e-22
-2.0883e-22
7.55585e-21
-1.93236e-21
5.33174e-20
-1.54615e-20
3.47475e-18
-2.45108e-18
5.85596e-17
-4.15582e-17
1.03924e-16
-2.10091e-16
5.25128e-17
-2.94695e-16
4.21964e-17
-2.54362e-16
2.07668e-17
-1.21365e-16
4.64647e-18
-3.57528e-17
3.68463e-18
-6.48819e-18
5.33994e-18
-8.60116e-18
3.17096e-18
-6.05104e-18
1.41363e-18
-1.49524e-18
3.44371e-18
-2.35235e-18
3.41335e-17
-1.9904e-17
2.38365e-16
-1.46797e-16
1.11381e-15
-7.02978e-16
4.5819e-15
-2.79351e-15
-1.93461e-14
3.39699e-14
1.5198e-31
-1.21995e-31
1.03967e-28
-1.15649e-28
1.35766e-24
-1.08673e-24
2.29933e-23
-1.3034e-23
2.47492e-22
-2.50149e-23
2.54849e-21
-7.72848e-22
5.22013e-19
-2.71119e-19
9.18444e-18
-4.18099e-18
3.35701e-17
-2.61315e-17
8.12155e-17
-1.03499e-16
6.74429e-17
-1.0928e-16
2.28746e-17
-5.53906e-17
4.66502e-18
-1.67353e-17
1.82705e-18
-2.28763e-18
2.50316e-18
-1.2815e-18
1.37466e-18
-5.59699e-19
5.01647e-19
-1.73833e-19
1.35463e-18
-8.80697e-19
1.80512e-17
-1.10297e-17
1.51457e-16
-9.65722e-17
8.19002e-16
-5.47588e-16
3.95944e-15
-2.45749e-15
-1.81707e-14
2.81759e-14
2.03129e-33
-1.95604e-32
6.2699e-30
-7.70922e-32
8.56046e-26
-2.64414e-29
1.02949e-24
-1.81459e-27
2.43345e-24
-1.03098e-25
1.41208e-22
-2.0479e-22
5.34533e-20
-2.99294e-20
8.84986e-19
-6.18218e-19
5.97384e-18
-3.07708e-18
2.74511e-17
-1.33529e-17
1.37019e-17
-1.32827e-17
6.42428e-18
-8.74776e-18
1.37442e-18
-3.50916e-18
2.92374e-19
-7.49709e-19
1.80866e-19
-8.38412e-20
7.49779e-20
-1.55819e-20
5.0815e-20
-3.09323e-20
6.11437e-19
-3.78078e-19
9.35798e-18
-5.72432e-18
9.15507e-17
-5.97979e-17
5.83402e-16
-4.11904e-16
3.02328e-15
-1.99087e-15
-1.51877e-14
2.17538e-14
3.0339e-34
-3.52318e-34
3.50783e-33
-1.00629e-32
2.40582e-30
-9.70129e-30
2.18197e-28
-6.60767e-28
1.5289e-26
-3.41606e-26
3.66306e-23
-3.0512e-23
5.62165e-21
-3.48867e-21
1.23512e-19
-8.33303e-20
6.37493e-19
-4.65883e-19
1.83482e-18
-1.14454e-18
2.04198e-18
-1.61944e-18
1.11036e-18
-1.29124e-18
3.45156e-19
-6.76165e-19
4.93356e-20
-1.70181e-19
5.10566e-21
-2.05871e-20
4.09049e-21
-5.04606e-21
1.43539e-20
-1.16555e-20
2.58692e-19
-1.58598e-19
4.42112e-18
-2.73372e-18
5.1668e-17
-3.46945e-17
3.95372e-16
-2.90752e-16
2.15213e-15
-1.5141e-15
-1.18602e-14
1.52952e-14
4.71401e-36
-8.293e-37
4.93572e-34
-1.20184e-34
8.52263e-31
-1.18934e-30
7.683e-29
-8.90599e-29
4.90594e-27
-4.55721e-27
4.56493e-24
-3.4773e-26
5.99898e-22
-1.38389e-22
1.54608e-20
-6.7675e-21
8.36429e-20
-4.79695e-20
1.83879e-19
-1.1473e-19
2.36193e-19
-2.06241e-19
1.73804e-19
-1.55529e-19
7.16281e-20
-7.47973e-20
1.08096e-20
-1.73178e-20
1.5076e-21
-2.42058e-21
1.30185e-21
-1.08378e-21
5.3853e-21
-3.70078e-21
9.91833e-20
-6.23125e-20
1.90825e-18
-1.20076e-18
2.706e-17
-1.85767e-17
2.47912e-16
-1.86714e-16
1.4444e-15
-1.07962e-15
-8.94173e-15
1.06572e-14
1.03482e-38
-1.25135e-38
5.43415e-36
-8.10178e-36
8.21822e-32
-8.07183e-34
8.17126e-30
-1.58065e-32
4.9011e-28
-1.06177e-30
4.27292e-27
-3.93411e-29
2.14925e-23
-6.00627e-26
1.14911e-21
-8.46101e-23
7.75028e-21
-1.35814e-21
1.81722e-20
-5.3848e-21
2.72223e-20
-7.34411e-21
1.77679e-20
-5.08663e-21
6.43296e-21
-3.05401e-21
9.45319e-22
-1.06523e-21
2.40408e-22
-2.38163e-22
2.41588e-22
-1.92028e-22
1.67446e-21
-1.17421e-21
3.55355e-20
-2.3252e-20
7.52503e-19
-4.84659e-19
1.29043e-17
-8.98663e-18
1.40203e-16
-1.0719e-16
9.21727e-16
-7.44631e-16
-7.38674e-15
7.6775e-15
1.46859e-40
-2.60032e-40
3.4042e-37
-9.44853e-39
4.83768e-35
-4.35204e-37
1.26268e-33
-7.10318e-35
1.07341e-31
-5.94558e-33
5.06389e-30
-4.29919e-30
8.65352e-27
-1.10475e-28
1.35987e-23
-2.15361e-25
2.19166e-22
-4.18493e-24
7.04905e-22
-1.53507e-23
8.54881e-22
-2.45406e-23
5.09817e-22
-2.49507e-23
2.85594e-22
-1.94464e-23
7.45224e-23
-1.38691e-23
3.51766e-23
-1.25543e-23
3.81719e-23
-2.30881e-23
5.22577e-22
-3.75247e-22
1.19784e-20
-8.1955e-21
2.70766e-19
-1.80316e-19
5.49886e-18
-3.88777e-18
7.10011e-17
-5.54888e-17
5.87187e-16
-5.32749e-16
-7.18434e-15
6.1816e-15
2.8202e-42
-3.36597e-43
3.51537e-40
-1.02266e-41
2.52746e-38
-1.97549e-38
5.46652e-36
-1.45002e-36
5.71973e-34
-9.67496e-35
5.11042e-31
-1.14702e-33
1.45792e-29
-9.26675e-31
3.22751e-26
-9.88587e-28
6.16439e-25
-2.67902e-26
1.9659e-24
-1.33935e-25
2.6476e-24
-3.11507e-25
2.93301e-24
-4.61872e-25
2.13922e-24
-5.58418e-25
1.80942e-24
-5.72144e-25
1.94861e-24
-6.1847e-25
6.29833e-24
-4.25125e-24
1.58126e-22
-1.15207e-22
3.77148e-21
-2.69885e-21
8.93993e-20
-6.29418e-20
2.08574e-18
-1.52494e-18
3.26753e-17
-2.6823e-17
3.97533e-16
-4.25836e-16
-7.40017e-15
5.43643e-15
3.35083e-45
-8.7523e-47
3.55685e-43
-5.97058e-46
1.07109e-39
-1.57892e-42
1.0275e-37
-1.43248e-40
8.24162e-36
-5.6278e-39
1.16964e-34
-2.32971e-37
1.15506e-31
-7.7911e-35
1.38026e-28
-6.18122e-33
3.81317e-27
-2.59746e-29
1.7941e-26
-8.22359e-28
3.88266e-26
-4.03365e-27
5.6409e-26
-7.88618e-27
6.70999e-26
-8.34403e-27
7.45171e-26
-6.90136e-27
9.56726e-26
-3.73475e-26
1.40004e-24
-1.19609e-24
4.35118e-23
-3.16857e-23
1.09971e-21
-8.24252e-22
2.7659e-20
-2.1257e-20
7.18634e-19
-5.67153e-19
1.40974e-17
-1.26753e-17
2.9452e-16
-3.72649e-16
-7.40016e-15
4.75698e-15
8.04987e-49
-3.14265e-49
1.84035e-47
-2.31909e-47
7.74227e-44
-3.32009e-46
9.24481e-42
-7.58601e-44
4.51217e-40
-2.07807e-41
2.28565e-38
-5.46455e-39
8.85963e-36
-8.85867e-38
8.03113e-34
-3.44413e-37
3.75955e-30
-1.49796e-32
1.19616e-28
-2.77628e-30
5.21656e-28
-1.91424e-29
8.09687e-28
-4.22085e-29
8.91846e-28
-4.29386e-29
8.00703e-28
-1.63362e-28
9.74405e-27
-9.78116e-27
3.76671e-25
-2.93515e-25
1.04978e-23
-7.85565e-24
2.96624e-22
-2.40365e-22
8.28525e-21
-7.23336e-21
2.35744e-19
-2.12557e-19
5.88594e-18
-5.9108e-18
2.25746e-16
-3.21101e-16
-6.63554e-15
3.86818e-15
2.65346e-51
-6.91291e-54
6.81848e-49
-2.5035e-52
1.45208e-47
-1.50914e-48
4.5629e-45
-6.87298e-47
1.56187e-42
-6.02838e-45
4.82045e-40
-2.82685e-44
7.95479e-39
-7.19889e-41
3.64892e-38
-1.00243e-38
2.00766e-33
-4.94809e-37
3.82911e-31
-8.21708e-34
2.34212e-30
-1.30453e-32
3.78822e-30
-2.85519e-32
4.18202e-30
-4.56844e-31
3.31251e-29
-3.29322e-29
2.55917e-27
-1.93671e-27
7.90051e-26
-5.33251e-26
2.29606e-24
-1.90355e-24
7.66578e-23
-7.12476e-23
2.49429e-21
-2.5426e-21
7.75618e-20
-8.17755e-20
2.35838e-18
-2.58429e-18
1.59051e-16
-2.34467e-16
-4.99906e-15
2.76582e-15
5.36225e-56
-9.59059e-56
7.32089e-54
-3.38075e-53
6.20817e-50
-4.53204e-51
3.73486e-48
-1.73809e-49
3.7299e-46
-1.2744e-47
2.31718e-45
-5.13001e-45
6.86686e-42
-8.15034e-44
1.10217e-39
-1.63729e-40
6.16328e-38
-2.82535e-38
1.07323e-34
-1.98748e-37
1.47056e-33
-1.36312e-35
3.56323e-33
-1.01827e-33
9.01776e-32
-1.36857e-31
7.12386e-30
-6.52565e-30
4.21667e-28
-2.24579e-28
1.26222e-26
-1.05992e-26
4.9867e-25
-5.07302e-25
2.01973e-23
-2.28442e-23
7.67732e-22
-9.24303e-22
2.57105e-20
-3.16029e-20
8.55422e-19
-1.01478e-18
8.82576e-17
-1.27694e-16
-3.11157e-15
1.65101e-15
6.91312e-58
-3.9293e-57
9.64524e-55
-5.1e-54
1.72083e-52
-1.6669e-52
1.05307e-50
-6.24004e-50
8.95512e-49
-3.01532e-48
4.3057e-46
-7.6563e-46
8.04e-45
-2.304e-44
1.82323e-41
-3.77725e-41
3.24067e-39
-5.29394e-39
2.52104e-38
-4.48408e-38
2.10789e-36
-4.07675e-36
1.65828e-34
-2.41481e-34
2.57834e-32
-2.75878e-32
1.17641e-30
-5.67572e-31
4.3828e-29
-4.46894e-29
2.37494e-27
-3.48468e-27
1.20389e-25
-1.68533e-25
5.72367e-24
-8.25413e-24
2.40495e-22
-3.53608e-22
8.34972e-21
-1.22419e-20
2.71868e-19
-3.71885e-19
3.58646e-17
-5.32528e-17
-1.63781e-15
8.03062e-16
2.56764e-59
-1.53119e-59
1.23687e-55
-3.92778e-57
6.2307e-54
-2.93386e-53
3.62304e-51
-1.46953e-50
1.93454e-49
-1.75624e-49
5.43392e-47
-9.12628e-49
2.22901e-45
-5.68056e-45
3.76225e-42
-4.44787e-43
5.40011e-40
-5.31153e-42
5.40486e-39
-6.33952e-39
5.90881e-37
-8.11061e-37
3.55273e-35
-2.8029e-35
4.03346e-33
-1.14458e-33
8.9487e-32
-1.00874e-31
8.38988e-30
-1.49072e-29
6.98482e-28
-1.12672e-27
3.50608e-26
-5.94917e-26
1.75978e-24
-2.91942e-24
7.65634e-23
-1.30152e-22
2.6116e-21
-4.28049e-21
7.87797e-20
-1.28206e-19
1.11764e-17
-1.87365e-17
-7.38706e-16
3.16983e-16
9.26901e-62
-1.07943e-60
9.42107e-59
-1.0692e-57
9.91832e-55
-2.25201e-55
6.34947e-52
-8.71343e-55
8.02699e-51
-3.74741e-52
5.62405e-50
-1.88284e-49
4.4073e-46
-2.05974e-47
3.36298e-44
-1.65132e-45
4.76672e-43
-6.31487e-43
6.48716e-40
-5.566e-41
9.08917e-38
-9.51406e-39
3.25898e-36
-1.12965e-36
1.51319e-34
-2.3429e-34
1.50749e-32
-2.56293e-32
2.37769e-30
-2.83004e-30
1.79965e-28
-1.83657e-28
1.00078e-26
-1.40144e-26
4.91755e-25
-6.8837e-25
2.19402e-23
-3.43192e-23
6.94113e-22
-1.09724e-21
2.04217e-20
-3.67536e-20
2.83818e-18
-5.61317e-18
-2.76128e-16
9.90116e-17
5.98618e-63
-7.93806e-63
2.32286e-59
-1.38612e-59
5.44175e-57
-1.13212e-58
2.80364e-56
-2.26629e-56
1.71739e-53
-1.36905e-53
1.20762e-50
-4.02492e-50
1.2958e-48
-1.23132e-48
1.17014e-46
-7.61465e-47
5.59641e-44
-1.24399e-43
4.95121e-42
-6.39772e-42
8.99652e-40
-7.30207e-40
1.17444e-37
-1.30668e-37
2.95366e-35
-6.8059e-35
3.23089e-33
-4.09818e-33
3.41215e-31
-1.80881e-31
2.22176e-29
-1.09453e-29
1.78059e-27
-1.51865e-27
8.60189e-26
-7.56283e-26
4.23258e-24
-4.97058e-24
1.30291e-22
-2.29154e-22
4.15644e-21
-8.97247e-21
5.59441e-19
-1.25107e-18
-8.25116e-17
2.22107e-17
3.89262e-65
-2.14599e-65
2.20384e-61
-1.45145e-64
2.61247e-60
-3.09182e-61
8.04621e-58
-3.94524e-57
5.66341e-55
-6.67557e-55
2.06142e-51
-6.3565e-54
6.74599e-50
-1.87241e-50
4.95705e-48
-8.17322e-48
9.14824e-45
-2.74194e-46
5.08198e-43
-5.51664e-43
6.65165e-41
-1.77949e-40
1.2292e-38
-2.03118e-38
6.83141e-36
-1.68148e-36
3.97868e-34
-2.22457e-34
1.79793e-32
-2.62587e-32
1.1561e-30
-2.64214e-30
1.5217e-28
-2.14444e-28
7.35075e-27
-1.22315e-26
4.62669e-25
-9.2307e-25
1.98519e-23
-5.25456e-23
6.80414e-22
-2.33932e-21
7.0632e-20
-2.36915e-19
-1.94451e-17
2.88426e-18
9.56383e-68
-1.02798e-67
2.01145e-66
-1.41408e-66
6.98509e-63
-2.75941e-62
1.21073e-58
-2.51376e-60
2.23356e-56
-2.74005e-58
2.46812e-55
-4.0001e-56
8.85598e-52
-2.41462e-53
4.49078e-49
-7.99074e-50
1.58079e-47
-3.43083e-48
3.62135e-44
-6.0133e-46
1.35455e-41
-1.43553e-42
1.54255e-39
-9.07168e-41
1.24533e-37
-1.02129e-38
1.74314e-35
-8.96379e-36
2.19715e-33
-2.03313e-33
2.31659e-31
-3.16478e-31
1.72607e-29
-2.68148e-29
9.35386e-28
-1.80705e-27
6.46185e-26
-1.75822e-25
3.03487e-24
-8.06832e-24
1.01759e-22
-5.04887e-22
5.11516e-21
-3.72757e-20
-3.55209e-18
-9.22488e-20
4.12239e-70
-1.00418e-72
1.79115e-68
-2.49437e-68
5.33418e-64
-1.1908e-65
6.00978e-62
-4.63314e-64
8.06021e-60
-3.43992e-61
1.45841e-57
-3.4087e-57
9.82222e-55
-7.05614e-55
3.57384e-51
-1.48001e-52
1.83118e-49
-5.60392e-49
3.22494e-47
-4.88726e-48
8.16246e-44
-2.73759e-45
5.39379e-42
-4.63432e-43
6.82945e-40
-1.5704e-39
5.80508e-37
-2.47906e-37
1.31399e-34
-6.09831e-36
2.01434e-32
-6.71733e-34
1.6226e-30
-7.16223e-31
9.99239e-29
-7.80839e-29
8.26501e-27
-9.17353e-27
2.74403e-25
-8.14758e-25
8.73693e-24
-5.15016e-23
-8.79594e-22
-4.96695e-21
-5.24717e-19
-2.62723e-19
3.57382e-75
-3.58694e-77
2.75554e-70
-1.69141e-73
1.82787e-67
-4.76977e-70
9.25515e-66
-4.23823e-66
8.5155e-63
-1.94451e-63
1.03364e-58
-6.97087e-61
2.38099e-56
-1.67815e-57
5.53098e-54
-6.47215e-56
2.3573e-50
-1.78531e-53
2.11031e-49
-2.78963e-49
1.30124e-46
-2.85111e-47
2.36832e-44
-2.63356e-44
8.68989e-41
-7.12848e-42
1.27337e-38
-1.29281e-39
3.18016e-37
-5.20013e-37
3.38258e-35
-4.16313e-35
3.25813e-32
-2.09465e-33
3.12035e-30
-2.34407e-30