/*--------------------------------*- C++ -*----------------------------------*\
  =========                 |
  \\      /  F ield         | OpenFOAM: The Open Source CFD Toolbox
   \\    /   O peration     | Website:  https://openfoam.org
    \\  /    A nd           | Version:  13
     \\/     M anipulation  |
\*---------------------------------------------------------------------------*/
FoamFile
{
    format      ascii;
    class       volScalarField;
    location    "0.3";
    object      alpha.water;
}
// * * * * * * * * * * * * * * * * * * * * * * * * * * * * * * * * * * * * * //

dimensions      [];

internalField   nonuniform List<scalar> 
2268
(
1
1
1
1
1
1
1
1
1
1
1
1
1
1
1
1
1
1
1
1
0.890949
0.82155
0.82127
1
1
1
1
1
1
1
1
1
1
1
1
1
1
1
1
1
1
1
1
0.980904
0.923339
0.970631
1
1
1
1
1
1
1
1
1
1
1
1
1
1
1
1
1
1
1
1
1
0.999848
0.999536
1
1
1
1
1
1
1
1
1
1
1
1
1
1
1
1
1
1
1
1
1
0.999933
0.990774
1
1
1
1
1
1
1
1
1
1
1
1
1
1
1
1
1
1
1
1
1
0.999998
0.990742
1
1
1
1
1
1
1
1
1
1
1
1
1
1
1
1
1
1
1
1
1
1
0.990899
1
1
1
1
1
1
1
1
1
1
1
1
1
1
1
1
1
1
1
1
1
1
0.991188
1
1
1
1
1
1
1
1
1
1
1
1
1
1
1
1
1
1
1
1
1
1
0.99138
3.43309e-09
2.32165e-09
1.57751e-10
1.54411e-12
7.15919e-14
2.84415e-15
1.13904e-16
4.87662e-18
2.24356e-19
1.06125e-20
4.89273e-22
2.26802e-23
9.49901e-25
3.53022e-26
1.1205e-27
2.84402e-29
5.18875e-31
4.69228e-33
2.86668e-33
2.22068e-08
6.37602e-08
6.14934e-09
1.06285e-11
4.72445e-13
8.96322e-14
5.26175e-15
2.24003e-16
1.09908e-17
5.53473e-19
2.69533e-20
1.29998e-21
5.80716e-23
2.30669e-24
7.78293e-26
2.04935e-27
2.64587e-29
2.2425e-31
3.06928e-33
5.97904e-07
1.25397e-06
1.16922e-07
2.38565e-10
9.20558e-12
5.60603e-13
8.37805e-14
4.77569e-15
2.14325e-16
1.04509e-17
4.4347e-19
2.27965e-20
1.03272e-21
3.84873e-23
1.18184e-24
1.99828e-26
2.66698e-28
2.47203e-30
1.1199e-31
8.52786e-06
1.51521e-05
1.41446e-06
2.69504e-09
9.74551e-11
4.2309e-12
6.061e-13
4.93842e-14
2.61584e-15
1.08574e-16
1.29302e-18
1.15722e-19
1.24198e-20
4.54575e-22
9.77044e-24
1.64578e-25
2.97446e-27
3.42119e-29
1.92618e-30
7.54013e-05
0.000113334
1.2179e-05
1.81018e-08
6.05058e-10
2.51027e-11
2.33618e-12
3.01038e-13
3.54902e-14
2.11519e-15
2.58105e-17
1.29401e-18
2.24482e-19
9.05581e-21
1.67927e-22
4.63683e-24
9.85085e-26
1.09015e-27
3.00609e-29
0.00064195
0.000651626
6.56623e-05
6.78518e-08
2.08562e-09
2.15688e-10
2.59869e-11
4.16222e-12
1.53045e-12
1.3891e-13
8.26788e-16
3.67703e-17
9.98979e-18
4.33495e-19
9.21305e-21
2.18684e-22
6.08952e-24
8.32693e-26
1.16555e-27
0.00161556
0.00174117
7.40142e-05
6.94358e-08
1.44206e-08
2.31266e-09
6.20486e-10
2.51942e-10
8.52384e-11
5.885e-12
4.21707e-14
1.88814e-15
4.34863e-16
1.64407e-17
2.60091e-19
1.05509e-20
3.02051e-22
4.53488e-24
6.07216e-26
0.00168287
0.00107463
1.16613e-06
4.44153e-07
3.54349e-07
2.0391e-08
6.85215e-08
1.35635e-08
2.49205e-09
1.19916e-10
1.81495e-12
8.74927e-14
1.28241e-14
3.89833e-16
1.08007e-17
4.55658e-19
1.44136e-20
2.17859e-22
3.3759e-24
1
1
1
1
1
1
1
1
1
1
1
1
1
1
1
1
1
1
1
1
1
1
0.991669
1
1
0.999999
0.999999
1
1
1
1
0.999999
0.999999
0.999999
0.999999
0.999997
0.999998
0.999999
0.999995
0.999985
1
1
1
1
1
0.99558
1
0.999999
0.99999
0.999991
0.999993
0.999993
0.999993
0.999992
0.999987
0.99998
0.999972
0.999965
0.999961
0.999854
0.999932
0.999952
0.999761
0.999539
1
1
1
1
1
0.999999
0.999963
0.999855
0.999866
0.99988
0.999876
0.999855
0.999807
0.999724
0.999492
0.99931
0.999091
0.992818
0.971553
0.934458
0.886008
0.844952
0.804183
0.826329
0.897683
0.999999
1
0.999838
0.999963
0.998906
0.998142
0.998239
0.998251
0.997613
0.990932
0.970471
0.929185
0.861764
0.76609
0.625572
0.47084
0.332663
0.221048
0.137189
0.0881948
0.0584752
0.0711477
0.112177
0.202043
0.374489
0.588049
0.990486
0.803674
0.712696
0.704558
0.665648
0.58411
0.468521
0.348033
0.23213
0.13005
0.0381888
1.49063e-08
1.30806e-08
6.51224e-08
3.23051e-06
1.16517e-05
1.71549e-05
1.84248e-05
8.80984e-05
0.000910834
0.000458701
0.0008813
0.0176353
0.446429
0.120379
0.046579
0.0417032
0.0202234
1.66638e-13
3.7068e-13
1.03004e-12
3.0692e-11
6.01638e-11
7.4398e-09
1.30293e-08
1.30383e-08
1.40395e-08
6.51203e-08
3.23047e-06
1.71413e-05
2.46431e-05
2.70854e-05
5.22505e-05
9.59738e-05
0.000149932
0.000253178
-8.75404e-19
-9.37986e-37
3.54863e-21
7.70169e-19
6.76752e-17
3.42505e-15
4.95311e-14
5.34508e-13
1.02967e-12
3.98203e-11
6.01638e-11
7.9305e-09
1.30383e-08
3.75815e-08
8.2818e-07
9.22641e-05
0.00033124
0.000239584
4.61913e-05
6.37738e-05
6.87139e-05
7.14966e-05
7.73947e-05
-3.78111e-20
1.22336e-19
1.05153e-17
6.05304e-16
2.74459e-14
4.21857e-13
4.58034e-12
1.47756e-12
5.02175e-10
7.18756e-11
4.42667e-08
1.4791e-08
1.35374e-08
4.24311e-07
0.000465593
0.0011197
0.000505856
7.08251e-05
6.35433e-05
6.70563e-05
6.70884e-05
6.77554e-05
7.077e-05
-2.30756e-20
9.39423e-19
1.07776e-16
1.15375e-14
5.47017e-13
6.22053e-12
2.40476e-11
1.61401e-12
1.83277e-09
1.54591e-10
9.30394e-07
4.3722e-07
1.90426e-08
1.77261e-05
0.0011197
0.0011197
0.000369835
0.000141467
7.22534e-05
6.70561e-05
0.000175417
0.001096
0.00193135
-3.05747e-20
1.32765e-18
1.84288e-16
3.04032e-14
1.44511e-12
1.35585e-11
2.90504e-11
2.2491e-12
1.93572e-09
6.66477e-09
1.08837e-06
9.17008e-07
3.19301e-08
2.9443e-05
0.000941538
0.0011197
0.00110792
0.00144713
0.00144698
0.00145582
0.00149082
0.0014779
0.000984682
-1.27463e-20
1.32304e-18
1.97727e-16
3.96454e-14
1.8713e-12
1.53179e-11
2.90632e-11
3.37231e-12
7.74149e-10
8.59267e-10
1.07877e-06
4.79517e-07
2.4342e-08
1.39883e-05
5.7316e-05
0.000764472
0.000872839
0.000818441
0.00100455
0.000653471
9.36923e-05
5.03507e-06
1.60253e-10
5.3022e-22
8.85314e-19
1.58417e-16
4.13804e-14
1.94452e-12
1.28172e-11
2.66713e-11
5.17381e-12
7.16421e-11
7.01013e-09
1.10582e-07
6.74571e-09
2.54206e-08
3.3074e-11
9.60977e-12
9.02452e-12
7.83496e-05
4.94916e-12
5.18654e-12
6.14488e-12
8.70737e-12
1.50641e-11
6.77788e-11
5.50344e-21
3.34376e-19
6.69015e-17
3.15902e-14
1.40703e-12
7.3436e-12
1.33778e-11
7.77489e-12
1.41348e-10
1.12334e-08
5.47946e-09
6.17222e-09
1.40965e-08
7.09852e-10
9.28129e-12
6.87255e-12
4.92226e-12
4.64462e-12
4.92225e-12
5.24982e-12
6.95093e-12
1.38902e-11
7.21551e-11
3.87999e-21
7.79574e-20
1.66755e-17
1.31054e-14
5.39116e-13
2.47864e-12
5.41811e-12
1.31018e-11
5.81413e-12
7.31596e-10
5.14851e-09
1.23616e-08
2.69236e-09
1.18938e-10
9.41137e-11
3.71212e-11
4.86253e-12
4.55823e-12
8.98265e-12
2.35492e-11
5.05642e-11
8.30718e-11
1.70736e-10
6.35533e-22
1.1549e-20
3.18322e-18
3.36859e-15
1.29497e-13
5.53192e-13
1.94019e-12
7.13868e-12
5.28259e-12
9.61813e-10
1.11306e-08
1.22145e-08
3.79909e-09
1.6412e-10
9.40578e-11
4.25808e-11
6.38865e-12
4.15669e-12
6.12669e-12
1.07697e-11
2.05573e-11
3.64047e-11
1.13722e-10
6.95509e-23
1.08114e-21
9.2431e-19
5.91188e-16
2.11862e-14
9.46322e-14
6.50024e-13
4.74297e-12
4.80815e-12
5.13617e-10
3.21156e-09
1.87068e-09
6.49187e-10
5.15727e-11
2.24589e-11
1.00277e-11
1.33401e-12
4.6131e-13
1.00834e-12
3.286e-12
9.80951e-12
2.37911e-11
1.14099e-10
6.46374e-24
9.98537e-23
5.10049e-19
7.29885e-17
2.32344e-15
1.14665e-14
2.02214e-13
2.91119e-12
9.50882e-12
1.7205e-11
2.48036e-13
1.42081e-13
1.42081e-13
4.63091e-12
2.39327e-12
6.45844e-13
6.45218e-14
8.60085e-14
3.57672e-13
1.72669e-12
6.36607e-12
1.85356e-11
1.12588e-10
4.91772e-25
2.36349e-23
2.32705e-19
6.92836e-18
1.56279e-16
9.10828e-16
4.84334e-14
8.77238e-13
2.22648e-12
1.29318e-12
9.43334e-13
5.46189e-13
1.45316e-13
4.68962e-14
6.60288e-14
4.79638e-14
1.38797e-14
2.2691e-14
1.56108e-13
1.01512e-12
4.47788e-12
1.56609e-11
1.06054e-10
2.64178e-26
4.95716e-24
4.52195e-20
6.02929e-19
5.26831e-18
4.32321e-17
7.38011e-15
1.23451e-13
6.90083e-13
1.63497e-12
1.4207e-12
6.78715e-13
1.94778e-13
2.1255e-14
3.01805e-14
2.11493e-14
4.74668e-15
8.5271e-15
8.01397e-14
6.31221e-13
3.21265e-12
1.34547e-11
9.38141e-11
3.72271e-28
3.04649e-25
2.92157e-21
3.4985e-20
6.53796e-20
2.37844e-18
7.75833e-16
1.21154e-14
7.45469e-14
5.66536e-13
3.34974e-13
1.70793e-13
5.20219e-14
6.81231e-15
3.37269e-15
1.42461e-15
4.74005e-16
3.03467e-15
4.10078e-14
3.78385e-13
2.28428e-12
1.04104e-11
7.76634e-11
5.76363e-29
2.06784e-28
8.42849e-26
5.76774e-24
3.19325e-22
6.28339e-19
8.35448e-17
1.76671e-15
8.72097e-15
3.57722e-14
3.67026e-14
2.4742e-14
1.02155e-14
2.2215e-15
1.86255e-16
3.77409e-17
9.44867e-17
1.25438e-15
1.95439e-14
2.14433e-13
1.56683e-12
7.63614e-12
5.78356e-11
9.24535e-31
2.63894e-29
3.08247e-26
2.10053e-24
1.06061e-22
7.99883e-20
9.15602e-18
2.23833e-16
1.27245e-15
3.0202e-15
4.38068e-15
3.48476e-15
1.83027e-15
4.46005e-16
4.76089e-17
1.34145e-17
3.54192e-17
4.93381e-16
8.62927e-15
1.14438e-13
1.00611e-12
5.31566e-12
4.17722e-11
2.11746e-33
2.97959e-31
3.027e-27
2.27583e-25
1.16099e-23
8.29274e-23
3.34123e-19
1.66976e-17
1.20072e-16
2.8828e-16
5.19699e-16
3.85152e-16
1.81799e-16
4.03208e-17
5.12085e-18
2.73992e-18
1.05287e-17
1.82679e-16
3.53024e-15
5.64673e-14
5.88367e-13
3.53138e-12
3.07205e-11
3.14635e-35
1.95403e-32
1.90062e-30
3.72246e-29
2.49105e-27
9.74546e-26
1.39054e-22
1.95914e-19
3.15245e-18
1.25712e-17
1.69003e-17
1.15448e-17
6.85883e-18
2.36106e-18
5.14929e-19
4.66968e-19
3.23757e-18
6.46824e-17
1.33737e-15
2.52808e-14
3.10594e-13
2.34734e-12
2.58582e-11
6.33521e-37
2.1559e-35
1.02968e-33
1.65636e-31
1.37791e-29
1.04015e-26
2.51558e-25
4.86049e-22
9.39858e-21
3.43154e-20
5.45659e-20
5.48817e-20
4.24947e-20
3.00695e-20
2.75283e-20
5.52186e-20
9.96049e-19
2.16901e-17
4.71743e-16
1.02291e-14
1.50588e-13
1.6795e-12
2.48764e-11
7.93424e-40
2.29047e-38
4.57877e-35
3.3072e-33
2.19263e-31
2.56378e-30
2.06581e-27
2.18349e-24
5.88366e-23
2.93169e-22
6.79672e-22
1.00119e-21
1.19915e-21
1.21405e-21
1.33245e-21
1.06396e-20
2.91808e-19
6.81933e-18
1.58184e-16
3.81989e-15
6.96538e-14
1.34933e-12
2.49112e-11
2.02435e-43
1.34412e-42
3.50736e-39
3.17471e-37
1.24395e-35
5.17799e-34
1.69887e-31
1.33672e-29
5.57321e-26
1.75673e-24
8.57984e-24
1.66556e-23
1.72897e-23
1.41859e-23
8.83888e-23
2.96616e-21
7.65933e-20
2.00681e-18
5.20893e-17
1.38186e-15
3.18949e-14
1.1562e-12
2.32043e-11
7.13217e-46
5.13639e-44
7.27442e-43
1.65413e-40
4.51699e-38
1.19402e-35
1.90275e-34
7.45145e-34
3.15713e-29
5.80648e-27
3.9707e-26
8.6751e-26
8.7169e-26
3.68271e-25
2.3667e-23
6.81905e-22
1.84339e-20
5.73732e-19
1.75053e-17
5.11014e-16
1.43585e-14
9.33124e-13
1.89128e-11
1.55171e-50
5.82951e-49
3.26134e-45
1.47835e-43
1.29047e-41
6.73332e-41
1.52073e-37
2.15333e-35
1.06368e-33
1.68802e-30
2.65711e-29
5.86207e-29
1.09243e-27
7.78527e-26
4.29619e-24
1.20864e-22
4.46073e-21
1.70164e-19
6.12391e-18
1.94518e-16
6.01699e-15
6.02597e-13
1.29092e-11
2.16774e-52
8.2837e-50
9.86188e-48
4.67573e-46
3.10447e-44
1.27246e-41
2.04481e-40
3.89461e-37
6.59427e-35
4.63298e-34
3.30163e-32
2.351e-30
3.39872e-28
1.43806e-26
5.01435e-25
2.55976e-23
1.22516e-21
5.53792e-20
2.2272e-18
7.43105e-17
2.28304e-15
2.93725e-13
7.43199e-12
8.70093e-54
1.15272e-50
3.93747e-49
1.74752e-46
7.35434e-45
1.71121e-42
6.1364e-41
8.81557e-38
1.18621e-35
1.07971e-34
1.02904e-32
5.6312e-31
5.96479e-29
1.24213e-27
1.08577e-25
8.59446e-24
4.1295e-22
1.98883e-20
8.40347e-19
2.80067e-17
8.16647e-16
1.14678e-13
3.68671e-12
3.40859e-56
9.57643e-54
6.73096e-50
3.40548e-47
3.72306e-46
2.1378e-45
1.30956e-41
9.04066e-40
1.14538e-38
1.35069e-35
1.7563e-33
5.84496e-32
2.52913e-30
2.35435e-28
3.51339e-26
2.54382e-24
1.37454e-22
6.5794e-21
2.91007e-19
9.23096e-18
2.71785e-16
3.86304e-14
1.5765e-12
2.37446e-57
2.57472e-54
4.64114e-52
1.81312e-51
7.80532e-49
4.71265e-46
4.29553e-44
3.39663e-42
1.47192e-39
1.1722e-37
1.9477e-35
2.36108e-33
5.64424e-31
5.81576e-29
5.83937e-27
3.67667e-25
2.89922e-23
1.39494e-21
6.98559e-20
2.24082e-18
7.51743e-17
1.10315e-14
5.59419e-13
1.66375e-59
2.82683e-56
2.30713e-55
5.14706e-53
2.89514e-50
9.03643e-47
2.55925e-45
1.63852e-43
2.71787e-40
1.3813e-38
1.66793e-36
2.85183e-34
1.50258e-31
8.40454e-30
3.67513e-28
2.31429e-26
3.02723e-24
1.49612e-22
9.89452e-21
4.6595e-19
1.83484e-17
2.3713e-15
1.60001e-13
4.44791e-62
2.93661e-61
6.5771e-58
8.75685e-54
1.37388e-51
1.27219e-50
3.74149e-47
1.71184e-44
5.39485e-43
1.11511e-39
3.90739e-37
4.17656e-35
3.18584e-33
4.29713e-31
5.33355e-29
5.65333e-27
4.29753e-25
2.45725e-23
1.87457e-21
1.04588e-19
4.74063e-18
4.40206e-16
3.63405e-14
2.10821e-64
2.87036e-63
5.81496e-59
5.02665e-57
5.45951e-55
8.34223e-53
4.83456e-50
1.57128e-46
7.35145e-45
1.16143e-42
2.74412e-39
1.71575e-37
2.0784e-35
1.70521e-32
3.83551e-30
5.99447e-28
5.08751e-26
3.43668e-24
3.37018e-22
1.52354e-20
9.62971e-19
6.40031e-17
6.20483e-15
2.03738e-69
5.00908e-65
2.37444e-62
9.2572e-61
6.83573e-58
7.03957e-54
1.40566e-51
2.88151e-49
1.18561e-45
9.69351e-45
5.22169e-42
8.99074e-40
3.18045e-36
4.6234e-34
1.15865e-32
1.24244e-30
1.28079e-27
1.40693e-25
1.64201e-23
1.49398e-21
9.2239e-20
6.68689e-18
6.84399e-16
7.22622e-74
3.35065e-70
9.4663e-67
8.42694e-63
3.84356e-60
1.36699e-57
3.27559e-54
1.25443e-52
3.43102e-50
5.48528e-46
5.41601e-44
5.08098e-41
1.32223e-38
2.37333e-36
9.86905e-34
7.7251e-32
3.74773e-30
4.16127e-27
6.28021e-25
9.91404e-23
6.44673e-21
6.60206e-19
3.93356e-17
2.23819e-77
1.09512e-74
2.17394e-70
1.39316e-67
1.07318e-64
7.43569e-63
2.0042e-60
1.56633e-55
1.99327e-54
9.97258e-52
2.31245e-47
6.93778e-45
3.79453e-43
5.5981e-40
1.05685e-36
4.26003e-34
7.63715e-32
7.10708e-30
3.03487e-27
4.26372e-25
8.09017e-23
2.57756e-20
2.91269e-18
1.83476e-88
3.10954e-81
4.77423e-80
1.60766e-75
8.04214e-73
2.23866e-69
1.81432e-66
1.66425e-62
5.09565e-58
4.25931e-57
3.6525e-53
1.6004e-50
7.60567e-48
9.39761e-45
5.45192e-42
5.88382e-40
2.26918e-36
4.83314e-33
1.52559e-30
4.41278e-28
1.20722e-25
3.89042e-23
1.01156e-20
7.68936e-103
3.2796e-99
0
-6.03727e-122
6.40984e-87
5.27686e-82
8.15819e-78
1.55791e-76
1.99608e-73
8.78596e-67
1.07338e-64
1.41267e-61
1.12566e-56
1.42944e-53
1.5569e-51
3.15773e-48
5.059e-45
8.22633e-42
1.83233e-38
2.22688e-35
1.83831e-32
6.28324e-29
3.14716e-26
0.994546
0.998607
0.992077
0.184306
0.99541
0.999452
0.999405
0.948011
0.99973
0.999594
0.999457
0.999393
0.999594
0.999514
0.999514
0.999508
0.768694
0.954391
0.999496
0.999386
0.049705
0.0973898
0.162507
0.250059
0.000456591
0.00107191
0.00335548
0.00118061
0.000132261
0.000323843
0.000594696
0.000887988
8.20749e-05
0.00041162
0.00221111
0.00229481
0.00199757
0.00200778
0.00206291
0.00173525
0.000207915
3.02782e-05
9.58194e-06
1.03042e-08
1.24824e-10
7.95001e-10
4.99153e-10
1.44253e-09
8.10259e-11
8.51266e-11
8.89004e-11
1.55109e-10
1.31348e-10
1.09893e-10
3.76545e-10
2.58011e-09
2.93246e-10
3.79641e-10
5.94102e-10
1.65254e-09
2.32381e-10
3.95495e-10
9.2372e-10
1.66009e-09
2.56986e-10
4.0735e-10
7.70673e-10
1.39321e-09
2.73738e-10
4.71482e-10
8.49937e-10
1.03296e-09
2.66174e-10
4.70155e-10
6.76297e-10
6.65655e-10
2.05662e-10
3.01537e-10
4.21011e-10
4.12596e-10
1.4779e-10
2.1666e-10
3.08951e-10
2.89592e-10
1.0244e-10
1.81868e-10
2.3559e-10
2.22429e-10
7.51014e-11
1.77542e-10
1.8493e-10
1.95575e-10
6.14451e-11
1.82074e-10
1.87003e-10
2.02307e-10
5.72936e-11
1.74073e-10
2.38265e-10
2.30591e-10
5.579e-11
1.71341e-10
2.02541e-10
2.3184e-10
5.18383e-11
1.5964e-10
1.61384e-10
2.04767e-10
4.71363e-11
1.52695e-10
2.98022e-10
3.24213e-10
4.03879e-11
1.42611e-10
3.52946e-10
2.06565e-09
3.15494e-11
1.30291e-10
4.78609e-10
3.14435e-09
2.17488e-11
1.01469e-10
5.04036e-10
3.85321e-09
1.27903e-11
7.22279e-11
4.44227e-10
2.98988e-09
6.30082e-12
4.35109e-11
2.82122e-10
1.91679e-09
2.49477e-12
2.24571e-11
1.63337e-10
1.11737e-09
8.0029e-13
9.78396e-12
8.19274e-11
5.59625e-10
2.0132e-13
3.39757e-12
3.29338e-11
2.34487e-10
3.96918e-14
8.69789e-13
1.03248e-11
8.73876e-11
8.04964e-15
1.57315e-13
2.64696e-12
3.42323e-11
2.12562e-15
3.3559e-14
6.95623e-13
1.32086e-11
2.26628e-17
5.48152e-15
1.44394e-13
2.82411e-12
1.23229e-18
3.6472e-17
1.20293e-15
3.04427e-14
3.42696e-24
8.42801e-22
1.00317e-19
1.04089e-17
0.141128
0.000583328
1.38819e-05
1.16613e-06
8.22948e-07
1.49769e-06
1.16089e-06
2.26671e-07
6.90903e-08
3.96814e-09
6.20779e-11
3.35992e-12
2.44351e-13
1.85133e-14
6.6397e-16
1.64811e-17
5.39521e-19
1.05958e-20
1.55961e-22
0.937994
0.265197
0.0712783
2.9917e-05
4.53759e-05
2.07513e-05
7.55698e-06
2.76325e-06
2.34123e-06
1.74695e-07
1.71817e-09
1.02176e-10
1.30079e-11
5.85372e-13
2.01997e-14
7.8978e-16
2.76036e-17
7.08961e-19
1.10703e-20
0.99915
0.96826
0.914221
0.366631
0.0543102
0.00455064
0.000226508
9.03901e-05
3.29275e-05
1.56022e-06
8.3899e-08
4.03619e-09
5.86457e-10
3.43054e-11
1.71187e-12
6.12819e-14
2.06828e-15
5.652e-17
8.74817e-19
0.999374
0.99913
0.99835
0.986906
0.94978
0.500508
0.0746834
0.001749
0.000316334
2.74682e-05
2.16395e-06
1.34342e-07
1.40921e-08
1.28624e-09
7.95793e-11
4.26602e-12
1.56761e-13
3.91113e-15
6.62158e-17
0.99913
0.998486
0.998018
0.997846
0.997032
0.995209
0.892047
0.319079
0.0125345
0.000413118
4.09786e-05
3.17874e-06
2.48162e-07
3.57202e-08
2.87069e-09
1.87048e-10
1.01062e-11
3.12362e-13
5.17989e-15
0.385807
0.658403
0.975123
0.99703
0.995209
0.992861
0.991558
0.958673
0.480892
0.0300534
0.000609089
5.80237e-05
4.47304e-06
7.11356e-07
8.78503e-08
7.30949e-09
4.46168e-10
1.71703e-11
5.03428e-13
0.00168618
0.0286308
0.109782
0.204648
0.471873
0.924111
0.988878
0.977358
0.956244
0.528121
0.0351165
0.000835201
7.35851e-05
1.01487e-05
1.4921e-06
1.57486e-07
1.17832e-08
5.34123e-10
2.68452e-11
0.0014178
0.00144095
0.000871058
0.000426245
0.00388338
0.0326636
0.28849
0.902109
0.942733
0.891991
0.439051
0.0172546
0.000963098
0.000118597
1.81189e-05
2.3949e-06
2.22147e-07
1.16669e-08
4.63745e-10
0.00229348
0.00199657
0.000269946
2.15493e-05
2.20653e-05
2.83711e-05
8.90959e-05
0.154362
0.787965
0.875404
0.777337
0.25075
0.00736392
0.00115214
0.000185579
2.68054e-05
2.53781e-06
1.28216e-07
6.32085e-09
0.000317072
0.0001177
3.26224e-05
1.09608e-06
1.54598e-06
2.24561e-06
4.48376e-06
5.39337e-05
0.237075
0.800841
0.799252
0.539047
0.0715098
0.00371491
0.000676911
0.000106313
1.1519e-05
6.67915e-07
7.4305e-08
3.18549e-09
8.36708e-09
1.97046e-08
3.31046e-08
8.02172e-08
1.78991e-07
3.33585e-07
1.52525e-06
5.35828e-05
0.501942
0.765118
0.682743
0.201358
0.0082471
0.00159361
0.000275683
3.36856e-05
2.09917e-06
4.41558e-07
8.69501e-10
2.54318e-09
3.16698e-09
3.55842e-09
6.64486e-09
2.71702e-08
6.07277e-08
1.35959e-07
1.8819e-05
0.164479
0.6804
0.655057
0.352927
0.0248474
0.00259379
0.000484722
6.33352e-05
4.98662e-06
1.59203e-06
1.19116e-09
2.76549e-09
3.10063e-09
3.44514e-09
1.04379e-08
2.93905e-08
4.35899e-08
1.02e-07
2.16931e-07
0.0166875
0.529897
0.625382
0.444966
0.0488691
0.00361869
0.000703177
0.00012053
1.64477e-05
3.80062e-06
3.22658e-09
1.90242e-09
1.31304e-09
2.66517e-08
9.60003e-07
7.99963e-07
1.64208e-07
1.34851e-07
2.0163e-07
8.65943e-07
0.355207
0.600855
0.477106
0.0854349
0.00446568
0.000915578
0.000173579
2.3731e-05
6.81743e-06
1.61775e-09
9.14286e-10
1.02802e-09
7.85306e-07
1.19102e-05
1.3506e-05
5.91682e-06
2.0163e-07
6.70029e-07
1.0432e-06
0.243667
0.555442
0.464852
0.0978469
0.00476317
0.00106045
0.000163571
1.9973e-05
7.9664e-06
1.22142e-09
8.11139e-10
9.14403e-10
6.56143e-06
1.35058e-05
1.35056e-05
1.35056e-05
3.45815e-06
9.97408e-07
1.46871e-06
0.188939
0.514639
0.436416
0.0927613
0.00451287
0.000809663
0.000120092
1.81705e-05
5.46637e-06
1.15308e-09
7.23602e-10
8.11266e-10
1.30807e-06
1.33749e-05
1.3506e-05
1.33749e-05
4.89915e-06
1.46022e-06
4.327e-06
0.19527
0.474583
0.387188
0.070515
0.00353545
0.000642445
0.000170203
2.1131e-05
3.39749e-06
7.55082e-10
6.82147e-10
9.82463e-10
8.47121e-09
1.15756e-05
1.33749e-05
9.501e-06
2.80354e-06
2.30531e-06
2.80509e-06
0.224507
0.441799
0.298906
0.0324776
0.00265125
0.000768257
0.000177438
2.1553e-05
2.12033e-06
5.25213e-10
5.37697e-10
2.51528e-08
8.13477e-08
7.85623e-06
1.29957e-05
4.99301e-06
3.01296e-06
2.79968e-06
0.0042376
0.238794
0.419674
0.166905
0.00839834
0.00248131
0.000844104
0.000174413
1.88556e-05
1.32512e-06
3.82887e-10
4.63271e-10
3.49092e-07
3.72635e-07
4.25429e-06
4.66053e-06
3.5984e-06
3.09729e-06
3.00662e-06
0.0330566
0.281016
0.282591
0.0648316
0.00494634
0.00226417
0.000712533
0.000130081
1.33713e-05
8.73244e-07
2.74068e-10
5.86752e-10
2.7373e-06
2.6599e-06
2.72728e-06
2.89203e-06
3.53889e-06
3.2985e-06
0.00257604
0.178593
0.278093
0.190557
0.016534
0.00303339
0.00149657
0.00048873
8.13802e-05
7.9561e-06
5.10664e-07
2.37532e-10
1.05204e-09
1.74356e-06
4.32824e-06
4.50786e-06
4.11054e-06
3.82183e-06
3.57239e-06
0.0905283
0.266619
0.278093
0.11346
0.00499141
0.00159291
0.000769338
0.000275661
3.94807e-05
3.91576e-06
2.60733e-07
5.39496e-09
4.66035e-09
5.812e-07
1.62635e-06
3.45056e-06
6.18263e-06
0.0013903
0.0678199
0.234076
0.24461
0.223948
0.0458218
0.00298272
0.000969354
0.000427905
0.000117798
1.70679e-05
1.82418e-06
1.26283e-07
1.5038e-08
4.719e-08
1.77608e-07
2.64539e-06
2.34738e-06
4.61958e-06
0.0456941
0.220073
0.227205
0.234076
0.103877
0.0101579
0.00254837
0.000769077
0.000209313
4.23413e-05
7.66226e-06
8.58952e-07
6.17966e-08
2.6442e-10
1.23478e-07
1.09596e-07
2.31668e-05
4.20725e-06
6.87693e-06
0.130885
0.208131
0.220334
0.126245
0.0142333
0.00377303
0.00218246
0.000593837
5.96428e-05
1.6155e-05
3.44556e-06
4.05193e-07
3.0154e-08
7.90212e-09
8.32409e-08
2.63422e-07
2.43885e-05
9.0877e-06
1.13345e-05
0.137085
0.195521
0.09575
0.0134556
0.00375141
0.00141738
0.00083132
0.000256002
2.4253e-05
5.41633e-06
1.54555e-06
1.94978e-07
1.49274e-08
2.48712e-08
9.21369e-08
1.24658e-07
2.30582e-05
8.66396e-06
0.0177679
0.138969
0.0768798
0.00939105
0.00264268
0.00124675
0.000605448
0.00015383
4.21297e-05
1.30581e-05
2.44139e-06
6.94024e-07
9.61262e-08
7.53197e-09
1.63149e-08
1.62472e-07
8.96195e-07
1.27729e-06
2.78538e-06
0.00126539
0.135622
0.0757298
0.00259676
0.00115191
0.000445524
0.00021203
6.91721e-05
1.91101e-05
5.45894e-06
1.34821e-06
3.29297e-07
4.86394e-08
3.88761e-09
3.14905e-08
1.24666e-07
2.30379e-06
2.62502e-06
0.000138009
0.000106777
0.0981424
0.104519
0.00610031
0.00058104
0.000206468
8.10327e-05
2.72026e-05
8.85038e-06
2.78902e-06
8.15022e-07
1.72561e-07
2.52375e-08
2.04691e-09
3.48349e-08
1.98451e-07
1.59824e-06
1.46144e-05
0.000153847
9.44529e-05
0.0718617
0.105201
0.0362553
0.00043841
0.000119123
3.69874e-05
1.13691e-05
3.3033e-06
1.19523e-06
4.76772e-07
9.7249e-08
1.34467e-08
1.0907e-09
2.95834e-08
1.81632e-07
1.75169e-06
1.33039e-05
8.59499e-05
8.52845e-05
0.0677404
0.106126
0.109443
0.00258049
0.000113813
1.82519e-05
5.32175e-06
1.436e-06
4.67129e-07
2.26171e-07
5.52164e-08
7.30841e-09
5.79622e-10
1.96934e-08
1.51825e-07
1.35631e-06
1.11784e-05
6.45037e-05
7.87532e-05
0.0107938
0.107698
0.11252
0.0218147
0.000355807
8.01374e-05
3.2713e-06
7.14794e-07
2.43633e-07
7.25323e-08
2.79248e-08
3.95003e-09
3.02198e-10
1.34801e-08
1.14951e-07
1.12263e-06
9.13346e-06
4.56382e-05
0.000756886
0.000547781
0.108317
0.113205
0.11252
0.00557511
0.000344453
4.03111e-05
2.56933e-06
1.86075e-07
2.51743e-08
1.20673e-08
2.07673e-09
1.53421e-10
8.66997e-09
8.21446e-08
8.99521e-07
8.47564e-06
5.41888e-05
0.000431502
0.000376094
0.10589
0.113205
0.113205
0.0220048
0.000394485
1.37819e-05
4.28336e-07
5.04194e-08
1.79769e-08
6.10392e-09
1.10096e-09
7.61521e-11
4.70979e-09
5.03311e-08
6.23467e-07
6.59139e-06
5.72675e-05
0.000157274
0.000197739
0.062734
0.113205
0.112705
0.10415
0.00486865
1.42976e-05
3.87597e-07
9.03273e-08
1.93325e-08
3.68305e-09
5.81562e-10
3.72475e-11
2.22063e-09
2.38293e-08
3.1206e-07
3.13586e-06
2.70351e-05
0.000217184
0.00332244
0.0133663
0.112354
0.112204
0.0904942
0.00314276
0.00015807
6.722e-06
1.3798e-07
1.41929e-08
1.96405e-09
2.94788e-10
1.7975e-11
9.38943e-10
1.04131e-08
1.5175e-07
1.65836e-06
1.46613e-05
0.000116882
0.00222118
0.010396
0.0654426
0.0771329
0.0183987
0.00316803
5.25584e-05
3.74943e-06
6.76708e-08
2.16111e-09
9.13701e-10
1.4866e-10
8.51252e-12
4.24355e-10
6.9996e-09
1.07794e-07
1.24358e-06
1.02182e-05
7.06638e-05
0.00154827
0.00569206
0.00640397
0.00907588
0.00134866
0.00103372
8.9019e-06
9.4805e-08
9.32934e-09
7.43629e-10
4.03936e-10
7.42444e-11
3.93225e-12
1.86569e-10
6.34573e-09
9.57078e-08
1.02361e-06
6.97684e-06
3.12119e-05
0.000578472
0.00148594
0.00158399
0.00185767
0.000609408
8.85289e-05
4.94261e-06
7.61945e-08
1.66873e-09
3.51073e-10
2.0737e-10
3.65354e-11
1.79041e-12
5.02178e-11
1.02992e-09
1.51848e-08
1.75194e-07
1.66416e-06
1.1501e-05
0.000105761
0.000433935
0.000564169
0.000586016
0.000224908
4.02947e-05
2.70723e-06
5.8884e-08
1.23815e-09
1.87447e-10
1.07205e-10
1.76065e-11
6.25246e-13
8.81172e-13
3.31082e-11
8.13546e-10
1.25955e-08
1.32334e-07
1.03363e-06
1.90575e-05
9.19281e-05
0.0001466
0.000183681
6.52084e-05
1.34788e-05
1.36145e-06
3.80391e-08
8.89181e-10
9.07216e-11
5.62583e-11
8.77745e-12
2.51156e-13
1.1429e-15
1.12855e-13
8.52602e-12
2.77638e-10
4.36778e-09
2.7731e-08
6.56242e-07
5.98043e-06
4.01521e-05
9.25133e-05
1.86676e-05
1.41672e-06
1.52264e-07
1.09084e-08
2.67948e-10
3.34654e-11
1.72028e-11
2.68183e-12
2.51156e-13
)
;

boundaryField
{
    leftWall
    {
        type            zeroGradient;
    }
    rightWall
    {
        type            zeroGradient;
    }
    lowerWall
    {
        type            zeroGradient;
    }
    atmosphere
    {
        type            inletOutlet;
        inletValue      uniform 0;
        value           nonuniform List<scalar> 
46
(
0
0
0
0
0
0
0
0
0
0
0
0
0
0
0
0
0
0
0
0
0
0
0
0
0
0
0
0
0
0
0
0
0
6.56242e-07
5.98043e-06
4.01521e-05
9.25133e-05
1.86676e-05
1.41672e-06
1.52264e-07
1.09084e-08
2.67948e-10
3.34654e-11
1.72028e-11
2.68183e-12
2.51156e-13
)
;
    }
    defaultFaces
    {
        type            empty;
    }
}


// ************************************************************************* //
