/*--------------------------------*- C++ -*----------------------------------*\
  =========                 |
  \\      /  F ield         | OpenFOAM: The Open Source CFD Toolbox
   \\    /   O peration     | Website:  https://openfoam.org
    \\  /    A nd           | Version:  13
     \\/     M anipulation  |
\*---------------------------------------------------------------------------*/
FoamFile
{
    format      ascii;
    class       volScalarField;
    location    "0.3";
    object      p;
}
// * * * * * * * * * * * * * * * * * * * * * * * * * * * * * * * * * * * * * //

dimensions      [1 -1 -2 0 0 0 0];

internalField   nonuniform List<scalar> 
2268
(
1307.6
1312.24
1317.34
1317.71
1311.51
1300.84
1288.62
1276.53
1265.27
1255.31
1247.23
1241.79
1240.03
1243.28
1253.62
1272.6
1301.67
1340.18
1382.08
1412.9
1412.47
1388.62
1431.16
1247.79
1252.37
1257.47
1257.77
1251.53
1240.9
1228.76
1216.72
1205.47
1195.47
1187.3
1181.74
1179.78
1182.69
1191.66
1208.4
1234.68
1270.98
1313.74
1348.19
1352.91
1317.8
1369.41
1187.02
1191.53
1196.58
1196.76
1190.44
1179.9
1167.91
1155.97
1144.73
1134.64
1126.29
1120.46
1118.14
1120.52
1128.88
1144.65
1168.53
1200.12
1236.68
1269.87
1284.67
1275.5
1321.79
1125.39
1129.78
1134.73
1134.71
1128.29
1117.88
1106.1
1094.3
1083.06
1072.83
1064.2
1057.98
1055.13
1056.83
1064.3
1078.66
1100.38
1128.6
1160.23
1190.13
1214.07
1230.73
1290.73
1063
1067.24
1072.01
1071.7
1065.15
1054.9
1043.37
1031.72
1020.45
1010
1001
994.246
990.726
991.566
997.909
1010.71
1030.28
1055.81
1084.63
1112.64
1141.13
1172.8
1243.67
999.881
1004.02
1008.48
1007.8
1001.12
991.048
979.774
968.247
956.888
946.142
936.642
929.217
924.859
924.662
929.7
940.818
958.238
981.259
1007.8
1034.24
1062.43
1096.32
1163.97
936.262
940.114
944.184
943.039
936.236
926.383
915.366
903.921
892.398
881.248
871.126
862.883
857.521
856.105
859.65
868.912
884.141
904.646
928.628
952.708
976.429
1000.96
1037.01
872.204
875.704
879.129
877.397
870.511
860.943
850.204
838.807
827.046
815.388
804.519
795.311
788.773
785.946
787.801
795.071
807.983
825.906
846.874
867.428
882.971
891.567
852.456
62.3951
62.336
62.3033
62.3073
62.3195
62.3344
62.3509
62.3646
62.3738
62.3785
62.3795
62.3768
62.3705
62.3614
62.3506
62.3395
62.3297
62.3224
62.3185
62.3339
62.2653
62.2393
62.2474
62.2597
62.2752
62.2926
62.3064
62.3154
62.3201
62.321
62.3183
62.3118
62.3025
62.2914
62.28
62.2699
62.2624
62.2584
62.2684
62.1761
62.1716
62.1862
62.198
62.2157
62.2347
62.2487
62.2576
62.2624
62.2633
62.2605
62.2537
62.2437
62.2317
62.2194
62.2085
62.2004
62.1961
62.2002
62.0495
62.1012
62.1234
62.1341
62.1562
62.1775
62.1916
62.2003
62.2051
62.2062
62.2033
62.196
62.185
62.1717
62.1579
62.1456
62.1364
62.1315
62.1217
61.8768
62.0364
62.0565
62.0677
62.0973
62.1211
62.135
62.1435
62.1483
62.1496
62.1468
62.1388
62.1264
62.1112
62.0953
62.0811
62.0705
62.0648
61.984
61.6606
61.9975
61.9819
61.9992
62.0399
62.0654
62.0791
62.087
62.0919
62.0937
62.0909
62.0821
62.0678
62.0501
62.0315
62.0148
62.0023
61.9956
61.7172
61.0933
61.972
61.8912
61.9313
61.9835
62.0103
62.0237
62.0307
62.0357
62.0385
62.0359
62.026
62.0093
61.9885
61.9665
61.9466
61.9316
61.9236
61.5036
60.9619
61.9781
61.8004
61.8643
61.9298
61.9572
61.9695
61.9742
61.9795
61.9841
61.9819
61.9706
61.951
61.9262
61.9
61.8761
61.8581
61.8484
771.417
774.302
776.447
773.773
766.756
757.533
747.08
735.587
723.266
710.602
698.32
687.312
678.604
673.214
672.064
675.887
685.048
699.035
715.179
729.055
726.658
685.748
440.366
632.872
634.616
634.713
630.502
623.03
613.789
603.051
590.711
576.92
562.17
547.212
532.955
520.542
510.839
504.691
502.618
504.393
511.66
519.818
525.172
512.111
461.587
348.533
494.104
493.574
490.872
485.04
477.037
467.415
455.854
442.182
426.522
409.308
391.268
373.394
357.173
342.792
330.998
324.198
325.049
328.581
330.878
339.328
341.678
322.075
285.419
356.143
352.191
346.265
339.036
330.153
319.314
306.004
290.308
272.098
251.475
228.803
204.145
182.719
162.659
142.841
122.877
106.227
96.9528
103.018
123.326
148.594
163.258
159.223
221.464
213.661
200.094
190.819
180.822
167.683
151.36
133.982
115
94.6308
73.11
48.1505
34.7097
25.4026
18.3524
13.1441
10.1084
8.38201
9.60725
12.5212
17.7945
28.2575
42.2444
102.31
86.1574
64.3234
58.4792
52.9884
43.7206
33.5932
25.801
18.5632
12.2241
6.85355
4.64669
4.25187
4.15519
4.13536
4.11946
4.10691
4.13209
4.13219
4.01027
3.8356
3.82434
4.39904
31.9543
11.2112
6.72726
6.36385
5.05785
4.03081
3.86529
3.83092
3.86381
3.92301
4.01201
4.04197
3.9887
3.93836
3.88466
3.79676
3.69846
3.63376
3.55202
3.45507
3.37493
3.31204
3.16807
3.50827
3.47665
3.55623
3.58818
3.61462
3.65559
3.65899
3.67179
3.69848
3.73395
3.76666
3.77419
3.73944
3.6706
3.56114
3.34786
3.12977
3.02942
3.03446
3.08296
3.11604
3.10453
3.02325
3.37378
3.3835
3.40931
3.42678
3.44172
3.46003
3.47312
3.48547
3.49976
3.51242
3.51234
3.48442
3.42838
3.34791
3.1825
2.83358
2.59884
2.54975
2.63777
2.805
2.92588
2.96504
2.91239
3.21196
3.23464
3.24048
3.24936
3.25841
3.26645
3.27217
3.27707
3.28045
3.27715
3.25783
3.21212
3.14455
3.05948
2.87055
2.52968
2.38108
2.39857
2.50967
2.68565
2.78828
2.78305
2.65062
3.04376
3.05456
3.06221
3.06771
3.07209
3.07383
3.0727
3.06931
3.06215
3.04664
3.01581
2.9627
2.89237
2.80521
2.63072
2.40295
2.2853
2.32266
2.45837
2.52817
2.51261
2.38763
2.20509
2.87865
2.88388
2.8867
2.88737
2.88654
2.8827
2.87521
2.86387
2.84723
2.82239
2.78509
2.73154
2.66299
2.57509
2.44716
2.31779
2.21749
2.20076
2.22523
2.22494
2.17984
2.09713
1.99647
2.71028
2.71021
2.71
2.7072
2.70213
2.69371
2.68104
2.66343
2.63973
2.60833
2.56728
2.51507
2.45055
2.37101
2.27505
2.17864
2.11146
2.07789
2.06029
2.04236
2.00701
1.93503
1.83333
2.53925
2.53626
2.5336
2.52808
2.51967
2.50764
2.49105
2.46901
2.44054
2.40474
2.36106
2.30937
2.24909
2.17965
2.10317
2.03015
1.97428
1.94011
1.90903
1.87175
1.8187
1.74057
1.63997
2.36724
2.36278
2.35822
2.35054
2.33951
2.32463
2.30503
2.27986
2.24827
2.20969
2.16411
2.11209
2.05408
1.99084
1.92534
1.86283
1.80923
1.76531
1.72197
1.67095
1.6073
1.52668
1.42903
2.19533
2.19025
2.18428
2.17493
2.16185
2.14466
2.12264
2.09505
2.06122
2.02071
1.97372
1.92104
1.86373
1.80319
1.74167
1.68198
1.62631
1.57388
1.52008
1.45935
1.38772
1.30247
1.20324
2.02463
2.01934
2.01233
2.00163
1.9869
1.96781
1.94373
1.91409
1.87834
1.83618
1.78788
1.73429
1.67666
1.61641
1.55504
1.49401
1.43387
1.37349
1.30979
1.23899
1.15837
1.06623
0.962272
1.856
1.85065
1.84282
1.83102
1.81492
1.7942
1.76835
1.73685
1.69929
1.65549
1.60573
1.55083
1.49192
1.43021
1.36667
1.30185
1.23554
1.16654
1.09274
1.0117
0.921533
0.820761
0.708978
1.69007
1.68467
1.67619
1.66345
1.64617
1.62403
1.59659
1.56337
1.52404
1.47848
1.42699
1.37026
1.30923
1.2448
1.17751
1.1074
1.03391
0.955914
0.871872
0.780048
0.679031
0.567369
0.444599
1.52735
1.52185
1.51282
1.49926
1.48092
1.4575
1.42857
1.39371
1.3526
1.30516
1.25164
1.1926
1.12877
1.06073
0.988698
0.912381
0.831041
0.743622
0.648909
0.54554
0.432308
0.307589
0.170837
1.36824
1.3626
1.3531
1.33878
1.31947
1.29484
1.2645
1.22803
1.18512
1.13567
1.07987
1.01815
0.951016
0.87878
0.801376
0.718279
0.628634
0.531438
0.425645
0.310023
0.183303
0.0435239
-0.109954
1.21312
1.20729
1.19737
1.18236
1.16212
1.13634
1.10463
1.06657
1.02185
0.970324
0.912093
0.847444
0.776683
0.699891
0.616755
0.526559
0.428359
0.321162
0.203958
0.0754796
-0.0657788
-0.222212
-0.394562
1.06232
1.05629
1.04596
1.03029
1.00917
0.982291
0.949266
0.909679
0.863175
0.809558
0.748833
0.681144
0.606614
0.525115
0.436128
0.338765
0.231974
0.114728
-0.014041
-0.15575
-0.312248
-0.486396
-0.679189
0.916163
0.909915
0.8992
0.882891
0.860933
0.833014
0.798755
0.757722
0.70952
0.653885
0.590711
0.520008
0.441728
0.355569
0.260837
0.156489
0.0413376
-0.0857499
-0.225956
-0.380914
-0.552826
-0.745013
-0.959028
0.774925
0.768441
0.75736
0.740452
0.717716
0.688845
0.653463
0.61112
0.561372
0.503874
0.438407
0.364843
0.282989
0.192398
0.0922402
-0.0186743
-0.141678
-0.278074
-0.429232
-0.596999
-0.783858
-0.993479
-1.22816
0.63885
0.632132
0.620716
0.603263
0.579829
0.55012
0.513765
0.470299
0.419228
0.360115
0.292622
0.216483
0.131377
0.0367501
-0.0683304
-0.185172
-0.31526
-0.460116
-0.621366
-0.801019
-1.00176
-1.22742
-1.48093
0.508156
0.501226
0.489521
0.471599
0.447572
0.417167
0.380025
0.335672
0.283566
0.223177
0.154037
0.0757442
-0.0121426
-0.110258
-0.219588
-0.341521
-0.477698
-0.629891
-0.800001
-0.990173
-1.20325
-1.44306
-1.71289
0.383026
0.375928
0.36399
0.345698
0.321207
0.290275
0.252565
0.207601
0.154804
0.0935531
0.0232546
-0.0566403
-0.146686
-0.247585
-0.360333
-0.486353
-0.627432
-0.785597
-0.963012
-1.16199
-1.38546
-1.63715
-1.92049
0.263575
0.256376
0.244271
0.225727
0.200926
0.169659
0.131623
0.0863528
0.033246
-0.0283918
-0.0992777
-0.180104
-0.271544
-0.374356
-0.489532
-0.618488
-0.763125
-0.925691
-1.10862
-1.31443
-1.54608
-1.80726
-2.10111
0.149851
0.142631
0.130437
0.111775
0.0868402
0.0554527
0.0173504
-0.0279049
-0.0809177
-0.142434
-0.213277
-0.294274
-0.386218
-0.48992
-0.606371
-0.736966
-0.883667
-1.0489
-1.23537
-1.4458
-1.68331
-1.95153
-2.25333
0.0418856
0.0347316
0.0225409
0.00391524
-0.0209538
-0.0522253
-0.0901138
-0.135017
-0.187519
-0.248387
-0.318522
-0.398867
-0.490327
-0.593772
-0.710197
-0.840972
-0.988081
-1.15409
-1.34192
-1.5546
-1.79544
-2.06807
-2.37569
-0.0602798
-0.067287
-0.0793588
-0.097774
-0.122349
-0.153238
-0.190603
-0.234795
-0.286351
-0.346031
-0.414773
-0.493603
-0.583521
-0.68546
-0.800422
-0.929752
-1.07542
-1.24007
-1.42687
-1.6391
-1.88037
-2.1545
-2.46559
-0.156767
-0.163567
-0.175375
-0.193386
-0.217412
-0.24762
-0.284124
-0.327221
-0.377383
-0.435327
-0.501985
-0.578422
-0.665703
-0.764816
-0.876771
-1.00288
-1.14507
-1.30604
-1.48907
-1.69768
-1.93584
-2.20785
-2.51894
-0.248004
-0.254566
-0.265949
-0.283358
-0.306575
-0.335793
-0.371087
-0.4127
-0.461024
-0.516699
-0.580608
-0.653805
-0.737377
-0.832347
-0.939732
-1.0608
-1.19741
-1.35222
-1.52851
-1.7299
-1.96068
-2.22564
-2.53126
-0.334316
-0.340632
-0.351439
-0.368057
-0.390213
-0.418138
-0.451875
-0.491616
-0.537666
-0.590566
-0.651108
-0.720286
-0.799165
-0.888772
-0.990117
-1.10442
-1.23343
-1.37964
-1.54616
-1.73659
-1.95523
-2.20714
-2.49963
-0.415202
-0.421267
-0.431355
-0.446995
-0.467831
-0.494141
-0.525948
-0.563389
-0.606693
-0.656281
-0.71283
-0.777228
-0.85048
-0.933574
-1.02749
-1.13339
-1.25286
-1.38812
-1.54199
-1.71777
-1.91943
-2.15188
-2.42262
-0.489879
-0.495682
-0.504895
-0.519359
-0.5386
-0.562935
-0.592381
-0.627027
-0.667023
-0.712674
-0.764516
-0.823309
-0.889952
-0.965366
-1.05047
-1.14631
-1.25425
-1.37619
-1.51448
-1.67185
-1.85165
-2.05814
-2.2982
-0.559741
-0.565337
-0.573524
-0.58664
-0.604047
-0.626083
-0.652764
-0.684138
-0.720287
-0.761402
-0.807879
-0.860332
-0.91953
-0.986284
-1.06141
-1.14578
-1.24048
-1.34695
-1.4669
-1.6023
-1.7556
-1.92972
-2.13105
-0.629249
-0.634814
-0.641925
-0.653609
-0.669082
-0.688658
-0.712363
-0.740218
-0.772252
-0.808572
-0.849453
-0.895373
-0.946952
-1.00486
-1.06974
-1.14224
-1.22309
-1.31317
-1.41346
-1.52496
-1.64893
-1.78722
-1.94345
-0.700397
-0.706018
-0.712177
-0.72243
-0.735982
-0.753065
-0.773732
-0.798006
-0.825911
-0.857522
-0.893036
-0.932793
-0.977239
-1.02684
-1.08203
-1.14318
-1.21065
-1.28477
-1.36583
-1.45399
-1.54939
-1.6524
-1.76365
-0.764842
-0.770377
-0.775784
-0.784479
-0.795902
-0.810193
-0.827436
-0.847697
-0.871038
-0.897542
-0.927334
-0.96059
-0.997515
-1.03831
-1.08313
-1.13207
-1.18514
-1.24225
-1.30314
-1.36733
-1.43407
-1.5025
-1.57068
-0.807038
-0.812999
-0.817324
-0.823959
-0.832529
-0.843132
-0.855853
-0.870782
-0.888006
-0.907591
-0.929558
-0.953868
-0.980426
-1.0091
-1.03973
-1.07208
-1.10581
-1.14041
-1.17516
-1.209
-1.24045
-1.26731
-1.28631
-23.9647
26.0195
67.9702
46.488
192.449
121.67
33.494
-26.316
221.232
161.421
107.228
77.2026
132.876
109.864
90.9343
79.3204
48.5271
49.587
48.4886
46.8678
5.60467
7.39187
11.1171
16.6421
3.01637
2.85118
2.74428
2.7327
2.91462
2.82483
2.70276
2.52916
2.82504
2.74905
2.62401
2.44977
2.45549
2.31243
2.16068
2.00527
2.07505
2.00373
1.93217
1.85169
1.91353
1.85122
1.78124
1.71032
1.74785
1.69013
1.62945
1.56747
1.55677
1.50196
1.44542
1.38805
1.34879
1.29574
1.24132
1.18599
1.12243
1.06879
1.01376
0.957616
0.878366
0.822435
0.764772
0.705544
0.619152
0.558919
0.496516
0.432093
0.346088
0.279789
0.211015
0.139954
0.0609392
-0.0133035
-0.090276
-0.169935
-0.233831
-0.31784
-0.405
-0.495739
-0.534506
-0.629671
-0.728674
-0.832296
-0.836945
-0.944591
-1.05727
-1.17566
-1.13583
-1.25719
-1.38552
-1.5215
-1.42374
-1.55876
-1.70285
-1.85721
-1.69326
-1.84015
-1.9975
-2.16691
-1.93924
-2.09564
-2.26304
-2.44279
-2.158
-2.32173
-2.49662
-2.68334
-2.34689
-2.51586
-2.69601
-2.88748
-2.50521
-2.67779
-2.86138
-3.05602
-2.63266
-2.80846
-2.99527
-3.19296
-2.72691
-2.90606
-3.09703
-3.29961
-2.78293
-2.96486
-3.16025
-3.36918
-2.79382
-2.97604
-3.17373
-3.38764
-2.75339
-2.93086
-3.12531
-3.33721
-2.65835
-2.82431
-3.00708
-3.20739
-2.50757
-2.65464
-2.81662
-2.99386
-2.30495
-2.42645
-2.55938
-2.70353
-2.07483
-2.16533
-2.26284
-2.36672
-1.85165
-1.9101
-1.97074
-2.03263
-1.61865
-1.64788
-1.67512
-1.69937
-1.2913
-1.29065
-1.28557
-1.27517
53.0244
59.9743
61.8543
61.8153
61.7783
61.8502
61.8825
61.8887
61.8841
61.8911
61.9003
61.8995
61.8855
61.8602
61.8279
61.7934
61.762
61.7381
61.7254
4.78412
41.5222
57.6342
61.3213
61.4582
61.6863
61.7843
61.7729
61.7479
61.7672
61.792
61.7948
61.7751
61.7381
61.6903
61.6392
61.5926
61.5574
61.5385
35.3697
-7.49118
9.1927
39.0056
57.0532
61.4414
61.7291
61.5267
61.5481
61.6418
61.697
61.7026
61.6726
61.6175
61.5467
61.4712
61.4023
61.3504
61.3227
54.8775
22.5086
13.6503
-0.7638
6.57862
32.3207
57.2957
60.8006
61.2203
61.5398
61.6299
61.6304
61.5813
61.498
61.3935
61.2823
61.1813
61.1055
61.0653
44.3151
35.4376
24.8032
13.0034
11.5664
8.78545
24.8793
40.4943
60.3694
61.6383
61.6384
61.5841
61.5043
61.3791
61.2247
61.0623
60.9153
60.8055
60.7478
25.0217
34.8256
36.8545
29.8879
23.8922
19.5746
24.202
27.965
38.4306
59.9659
61.666
61.5839
61.4328
61.2551
61.0315
60.7942
60.5817
60.4248
60.3432
2.6373
3.14165
7.65424
14.0551
28.183
36.6821
18.1377
12.0538
27.163
49.0433
59.695
61.5656
61.4023
61.099
60.7928
60.4515
60.1458
59.9248
59.8117
2.27786
1.85685
1.61353
1.70512
1.7376
2.69788
13.2715
11.4317
11.2087
34.7592
55.8075
60.7644
61.3
60.9079
60.459
59.9834
59.552
59.2484
59.0969
2.11962
1.74986
1.45688
1.36202
1.35456
1.28591
1.19432
5.41946
1.9947
18.2375
39.6477
56.98
60.6269
60.3958
59.8711
59.2757
58.7058
58.3115
58.1207
1.79377
1.55763
1.36794
1.28314
1.26639
1.21977
1.17152
1.05599
4.35501
3.53996
26.9884
46.6053
58.1679
59.2669
58.7683
58.1245
57.4633
57.0004
56.7838
1.70917
1.51267
1.35118
1.24967
1.19673
1.13343
1.08378
1.03871
1.28219
-4.84556
14.5036
37.0693
55.0593
57.0733
56.7252
56.2048
55.6178
55.1798
54.9768
1.59251
1.43752
1.31705
1.23467
1.145
1.05487
0.981063
0.905267
0.816693
0.764347
4.92412
23.2732
46.2211
53.2957
53.6302
53.3516
53.0181
52.7469
52.6167
1.46041
1.31929
1.20374
1.11103
1.02623
0.927856
0.836955
0.765912
0.720926
1.69223
2.37509
16.6122
38.2849
48.2375
49.4305
49.5794
49.6452
49.697
49.6968
1.29002
1.15922
1.04416
0.934562
0.824375
0.714044
0.627074
0.586941
0.588345
1.39995
2.45635
9.12714
28.0782
42.2069
44.4428
45.1331
45.7257
46.1716
46.3206
1.09058
0.959987
0.834226
0.701985
0.568967
0.445848
0.349891
0.304513
0.258904
0.384427
1.32378
7.19511
22.3459
36.6857
39.3511
40.5465
41.6968
42.4405
42.6953
0.860746
0.724352
0.582767
0.424558
0.269182
0.136505
0.027655
-0.0386232
-0.0869149
-0.145235
0.930414
8.77741
19.382
32.1271
34.6429
36.3087
37.8778
38.735
39.0483
0.603614
0.45699
0.298622
0.117646
-0.0556394
-0.197008
-0.322998
-0.408516
-0.420179
-0.330523
0.34048
8.64264
17.2114
28.5217
30.5383
32.638
34.3449
35.1986
35.5499
0.321593
0.158872
-0.0209687
-0.225747
-0.410433
-0.546213
-0.671045
-0.758541
-0.744245
-0.622156
2.40561
10.3045
16.3364
24.7054
27.0665
29.4026
31.0582
31.9099
32.2946
0.0181959
-0.164795
-0.371773
-0.610729
-0.820519
-0.946711
-1.05173
-1.10993
-1.03765
-0.638244
5.66813
15.4187
18.6994
22.0818
24.3522
26.5434
28.0842
28.9308
29.3333
-0.306336
-0.51376
-0.748841
-1.02143
-1.27181
-1.40084
-1.50136
-1.54316
-1.41036
-0.892082
10.1433
15.1904
19.8713
20.9501
22.441
24.1358
25.5037
26.2934
26.6961
-0.651821
-0.894538
-1.1696
-1.48849
-1.77675
-1.89747
-2.0094
-2.11226
-1.92029
1.12619
10.585
14.911
19.3374
19.8606
20.8839
22.1508
23.3068
23.9911
24.3801
-1.01281
-1.30041
-1.63193
-2.04216
-2.3851
-2.45417
-2.54492
-2.86924
-1.97709
2.48425
12.9311
16.4567
18.0461
18.6083
19.4326
20.4684
21.4138
21.9882
22.3443
-1.38551
-1.71949
-2.10842
-2.60213
-2.98983
-3.02876
-3.81242
-7.48997
2.54655
9.91988
13.977
15.9783
16.3497
17.2456
18.0804
18.9768
19.7513
20.2346
20.5408
-1.76688
-2.15568
-2.62794
-3.17753
-3.50158
-3.53266
-6.89412
-11.9284
4.55706
14.6352
15.1687
14.2986
14.8205
15.9155
16.8177
17.6281
18.2729
18.6822
18.9328
-2.13855
-2.59372
-3.20659
-3.93802
-4.32046
-4.09196
-4.25635
-9.67794
7.8669
15.0949
13.372
13.4403
13.9061
14.8701
15.719
16.4176
16.9524
17.2955
17.4903
-2.47435
-2.98261
-3.70568
-4.61507
-5.56839
-7.71619
-11.0759
-2.51135
9.56693
11.7874
12.2708
12.7313
13.3268
14.0634
14.7788
15.3399
15.7677
16.046
16.1864
-2.76557
-3.30447
-4.03084
-4.86393
-5.98168
-8.12827
-28.2531
-2.2019
8.91254
11.1887
11.624
12.1958
12.7993
13.4027
13.9454
14.3666
14.6897
14.9049
14.9943
-3.01629
-3.57263
-4.2534
-5.01371
-5.75095
-6.55203
-10.9629
3.20031
9.70171
11.2361
11.55
11.9994
12.4276
12.8348
13.183
13.465
13.6874
13.8429
13.888
-3.22776
-3.78924
-4.44073
-5.22904
-5.90859
-6.62051
-5.85234
4.32506
10.7669
11.6485
11.7485
11.9629
12.1222
12.2935
12.4536
12.6035
12.7319
12.8327
12.8435
-3.40129
-3.95901
-4.59211
-5.37969
-6.03449
-6.64865
-6.68396
5.01859
11.5216
11.7169
11.9533
11.8654
11.7664
11.7176
11.7157
11.7502
11.7973
11.8501
11.8404
-3.5429
-4.09738
-4.71522
-5.44912
-5.97549
-6.50161
-5.35855
1.95003
6.72143
11.4003
11.9703
11.6126
11.2908
11.0565
10.9305
10.8757
10.8613
10.8743
10.8616
-3.65832
-4.22405
-4.85268
-5.54423
-5.97118
-6.34756
-4.05685
-7.88002
0.853599
10.9666
11.4724
11.1279
10.6298
10.2679
10.0611
9.95359
9.90661
9.88912
9.89333
-3.7419
-4.34058
-5.02597
-5.79597
-6.40552
-6.77028
-7.16341
-9.26976
-6.77861
6.77065
10.3656
10.3379
9.68966
9.29902
9.08372
8.96752
8.92035
8.88668
8.92255
-3.77454
-4.4156
-5.19741
-6.15675
-7.21266
-8.02637
-8.70914
-8.87863
-16.4659
-1.75932
8.69049
8.99062
8.27333
8.09504
7.97441
7.90971
7.89894
7.86938
7.94042
-3.72449
-4.39762
-5.26713
-6.46331
-8.0743
-9.45244
-11.7155
-15.3568
-28.795
-11.0478
3.42905
6.08202
6.34341
6.6735
6.74836
6.79785
6.84769
6.85083
6.94777
-3.57649
-4.23956
-5.13447
-6.43913
-8.28207
-10.6596
-15.7662
-25.6078
-34.2314
-16.6477
-3.24072
2.12549
4.4505
5.15315
5.49805
5.68156
5.79791
5.84026
5.95124
-3.32142
-3.91874
-4.73723
-5.94622
-7.74686
-10.5977
-16.1008
-26.1271
-33.8651
-20.4022
-8.02737
0.0835414
3.03395
3.86004
4.35848
4.61956
4.78197
4.85661
4.9634
-2.96865
-3.44966
-4.09722
-5.03389
-6.4891
-9.01415
-13.5554
-20.0179
-23.6459
-17.6436
-7.89653
-0.897971
2.11761
2.81453
3.3686
3.64443
3.821
3.91296
3.99703
-2.55519
-2.88748
-3.31514
-3.90322
-4.80534
-6.29288
-8.46501
-11.0736
-12.7053
-10.2356
-4.69106
-0.703241
1.37358
2.01207
2.51591
2.76122
2.92194
3.01287
3.0615
-2.14026
-2.31309
-2.51332
-2.76964
-3.15497
-3.76102
-4.50172
-5.17878
-5.37367
-4.1026
-1.83572
-0.0832163
0.944967
1.41192
1.76427
1.94606
2.06816
2.1429
2.15542
-1.73422
-1.76381
-1.76052
-1.72844
-1.71203
-1.79055
-1.95374
-1.99214
-1.7304
-1.10031
-0.364568
0.257219
0.673681
0.91062
1.08869
1.18874
1.2591
1.30785
1.28634
-1.2466
-1.16501
-1.02215
-0.806292
-0.550072
-0.376421
-0.322263
-0.271692
-0.180017
-0.102447
-0.0371586
0.0816784
0.189486
0.260144
0.316876
0.354157
0.379268
0.400636
0.396151
)
;

boundaryField
{
    leftWall
    {
        type            calculated;
        value           nonuniform List<scalar> 
50
(
1307.6
1247.79
1187.02
1125.39
1063
999.881
936.262
872.204
771.417
632.872
494.104
356.143
221.464
102.31
31.9543
3.50827
3.37378
3.21196
3.04376
2.87865
2.71028
2.53925
2.36724
2.19533
2.02463
1.856
1.69007
1.52735
1.36824
1.21312
1.06232
0.916163
0.774925
0.63885
0.508156
0.383026
0.263575
0.149851
0.0418856
-0.0602798
-0.156767
-0.248004
-0.334316
-0.415202
-0.489879
-0.559741
-0.629249
-0.700397
-0.764842
-0.807038
)
;
    }
    rightWall
    {
        type            calculated;
        value           nonuniform List<scalar> 
50
(
62.3185
62.2584
62.1961
62.1315
62.0648
61.9956
61.9236
61.8484
61.7254
61.5385
61.3227
61.0653
60.7478
60.3432
59.8117
59.0969
58.1207
56.7838
54.9768
52.6167
49.6968
46.3206
42.6953
39.0483
35.5499
32.2946
29.3333
26.6961
24.3801
22.3443
20.5408
18.9328
17.4903
16.1864
14.9943
13.888
12.8435
11.8404
10.8616
9.89333
8.92255
7.94042
6.94777
5.95124
4.9634
3.99703
3.0615
2.15542
1.28634
0.396151
)
;
    }
    lowerWall
    {
        type            calculated;
        value           nonuniform List<scalar> 
62
(
1337.03
1341.67
1346.77
1347.14
1340.94
1330.27
1318.05
1305.96
1294.7
1284.74
1276.66
1271.22
1269.46
1272.71
1283.05
1302.03
1331.09
1369.61
1411.51
1442.33
1438.69
1412.8
1455.33
1431.16
1369.41
1321.79
1290.73
1243.67
1163.97
1037.01
852.456
38.2915
88.5297
130.072
58.0761
62.3951
62.3339
62.2684
62.2002
62.1217
61.984
61.7172
61.5036
62.4245
62.3654
62.3327
62.3367
62.3489
62.3638
62.3803
62.3941
62.4032
62.4079
62.4089
62.4063
62.3999
62.3909
62.38
62.3689
62.3591
62.3518
62.3479
)
;
    }
    atmosphere
    {
        type            calculated;
        value           nonuniform List<scalar> 
46
(
-0.8083
-0.815969
-0.818864
-0.824024
-0.830578
-0.838598
-0.848151
-0.859316
-0.87217
-0.886737
-0.902952
-0.920635
-0.939518
-0.95928
-0.979563
-0.999936
-1.01985
-1.03855
-1.05506
-1.06807
-1.07575
-1.07555
-1.06394
-1.0443
-1.02709
-1.00511
-0.977937
-0.918973
-0.798282
-0.62845
-0.415802
-0.194223
-0.029118
0
0
0
0
0
0
0
0
0
0
0
0
0
)
;
    }
    defaultFaces
    {
        type            empty;
    }
}


// ************************************************************************* //
