/*--------------------------------*- C++ -*----------------------------------*\
  =========                 |
  \\      /  F ield         | OpenFOAM: The Open Source CFD Toolbox
   \\    /   O peration     | Website:  https://openfoam.org
    \\  /    A nd           | Version:  13
     \\/     M anipulation  |
\*---------------------------------------------------------------------------*/
FoamFile
{
    format      ascii;
    class       volScalarField;
    location    "0.3";
    object      p_rgh;
}
// * * * * * * * * * * * * * * * * * * * * * * * * * * * * * * * * * * * * * //

dimensions      [1 -1 -2 0 0 0 0];

internalField   nonuniform List<scalar> 
2268
(
1337.03
1341.67
1346.77
1347.14
1340.94
1330.27
1318.05
1305.96
1294.7
1284.74
1276.66
1271.22
1269.46
1272.71
1283.05
1302.03
1331.09
1369.61
1411.51
1442.33
1438.69
1412.8
1455.33
1336.07
1340.66
1345.76
1346.06
1339.82
1329.19
1317.05
1305.01
1293.76
1283.76
1275.59
1270.02
1268.06
1270.98
1279.95
1296.69
1322.97
1359.26
1402.03
1436.47
1439.51
1399.32
1455.11
1334.17
1338.68
1343.73
1343.91
1337.59
1327.05
1315.06
1303.12
1291.88
1281.79
1273.44
1267.61
1265.29
1267.67
1276.03
1291.8
1315.67
1347.26
1383.83
1417.02
1431.81
1422.63
1468.87
1331.4
1335.79
1340.74
1340.72
1334.29
1323.88
1312.1
1300.31
1289.06
1278.83
1270.21
1263.98
1261.14
1262.84
1270.31
1284.67
1306.38
1334.61
1366.24
1396.14
1420.07
1436.72
1494.83
1327.87
1332.1
1336.87
1336.56
1330.01
1319.76
1308.24
1296.59
1285.31
1274.87
1265.87
1259.11
1255.59
1256.43
1262.77
1275.57
1295.14
1320.67
1349.49
1377.51
1406
1437.66
1506.08
1323.6
1327.74
1332.2
1331.53
1324.84
1314.77
1303.5
1291.97
1280.61
1269.86
1260.37
1252.94
1248.58
1248.39
1253.42
1264.54
1281.96
1304.98
1331.52
1357.97
1386.15
1420.04
1484.75
1318.84
1322.7
1326.77
1325.62
1318.82
1308.96
1297.95
1286.5
1274.98
1263.83
1253.71
1245.46
1240.1
1238.69
1242.23
1251.49
1266.72
1287.23
1311.21
1335.29
1359.01
1383.54
1416.23
1313.64
1317.14
1320.57
1318.84
1311.95
1302.38
1291.64
1280.25
1268.49
1256.83
1245.96
1236.75
1230.21
1227.39
1229.24
1236.51
1249.42
1267.35
1288.31
1308.87
1324.41
1333.01
1290.09
62.4245
62.3654
62.3327
62.3367
62.3489
62.3638
62.3803
62.3941
62.4032
62.4079
62.4089
62.4063
62.3999
62.3909
62.38
62.3689
62.3591
62.3518
62.3479
62.4221
62.3536
62.3276
62.3357
62.348
62.3635
62.3808
62.3947
62.4037
62.4084
62.4093
62.4066
62.4001
62.3908
62.3797
62.3683
62.3582
62.3507
62.3467
62.4157
62.3234
62.3188
62.3334
62.3452
62.3628
62.3819
62.3958
62.4048
62.4095
62.4104
62.4077
62.4008
62.3909
62.3789
62.3666
62.3556
62.3475
62.3432
62.408
62.2587
62.3075
62.3294
62.3401
62.3622
62.3835
62.3976
62.4063
62.4111
62.4122
62.4093
62.402
62.391
62.3777
62.3639
62.3516
62.3424
62.3375
62.4065
62.1717
62.3045
62.3214
62.3325
62.3622
62.3859
62.3999
62.4083
62.4132
62.4145
62.4116
62.4037
62.3912
62.376
62.3601
62.3459
62.3353
62.3297
62.5153
62.195
62.3424
62.3057
62.323
62.3636
62.3891
62.4028
62.4107
62.4156
62.4175
62.4147
62.4058
62.3915
62.3738
62.3552
62.3385
62.326
62.3193
62.7172
62.1413
62.3829
62.2739
62.3139
62.3661
62.3928
62.4063
62.4133
62.4183
62.4211
62.4185
62.4086
62.3919
62.3711
62.3491
62.3292
62.3142
62.3062
62.6871
61.8772
62.42
62.242
62.3059
62.3712
62.3987
62.411
62.4157
62.421
62.4255
62.4234
62.4121
62.3925
62.3677
62.3414
62.3175
62.2995
62.2899
1304.88
1307.77
1309.91
1307.24
1300.22
1291
1280.55
1269.05
1256.73
1244.07
1231.79
1220.78
1212.07
1206.68
1205.53
1209.35
1218.51
1232.5
1248.65
1262.52
1260.13
1219.22
969.393
1291.53
1293.28
1293.37
1289.16
1281.69
1272.45
1261.71
1249.37
1235.58
1220.83
1205.87
1191.62
1179.2
1169.5
1163.35
1161.28
1163.04
1170.32
1178.48
1183.83
1170.77
1120.25
1004.29
1277.96
1277.43
1274.72
1268.89
1260.89
1251.27
1239.71
1226.03
1210.37
1193.15
1175.1
1157.22
1141
1126.53
1114.8
1108.02
1108.72
1112.08
1114.73
1123.18
1125.53
1105.93
1069.27
1265.19
1261.21
1255.18
1247.97
1239.1
1228.25
1214.92
1199.18
1180.9
1160.06
1137.23
1112.37
1085.25
1045.88
992.37
928.407
874.472
828.174
854.35
939.459
1057.64
1072.31
1068.13
1255.67
1246.78
1232.42
1223.24
1213.26
1199.46
1176.24
1137.72
1076.08
986.049
865.676
695.533
522.221
370.148
247.776
155.924
102.266
69.8335
84.1521
129.458
227.582
416.218
650.858
1250.73
1018.2
890.985
875.714
825.154
721.443
577.431
430.081
288.595
164.018
52.2463
5.80614
5.41132
5.3147
5.29854
5.2924
5.28622
5.31287
5.39367
6.22471
5.52634
6.00457
25.9851
606.163
166.984
67.789
61.1682
32.2962
5.31544
5.14992
5.11556
5.14844
5.20764
5.29665
5.32662
5.27335
5.22301
5.16937
5.08554
5.00509
4.95002
4.87141
4.80676
4.78273
4.78909
4.77762
4.91809
4.88648
4.96606
4.99801
5.02445
5.06541
5.06882
5.08162
5.10831
5.14378
5.17649
5.18403
5.14929
5.08048
4.97214
4.88763
5.00612
4.77669
4.50935
4.58261
4.62264
4.61506
4.54208
4.9088
4.91852
4.94433
4.96181
4.97674
4.99505
5.00815
5.02049
5.03478
5.04744
5.04743
5.01947
4.96342
4.88358
5.43151
6.08564
4.90959
4.19338
4.27024
4.44285
4.56378
4.60397
4.55594
4.87218
4.89486
4.9007
4.90958
4.91863
4.92667
4.93239
4.93729
4.94067
4.93736
4.91959
4.87306
4.8048
4.7491
6.38785
6.04698
4.65469
4.29342
4.28972
4.45709
4.73944
6.26105
7.5141
4.82917
4.83998
4.84762
4.85312
4.85751
4.85924
4.85811
4.85473
4.84757
4.83207
4.80316
4.74974
4.67784
4.64314
6.09549
6.18548
6.04683
6.68922
6.82467
6.91022
6.95709
6.80906
5.74681
4.78926
4.79449
4.79731
4.79798
4.79715
4.79331
4.78582
4.77448
4.75784
4.733
4.69776
4.64307
4.57364
4.51239
4.46717
5.68754
5.79408
5.67353
6.05321
5.38283
4.26928
4.01734
3.90708
4.74608
4.74601
4.7458
4.743
4.73793
4.72951
4.71684
4.69923
4.67553
4.64415
4.60331
4.55088
4.4864
4.40682
4.31085
4.21444
4.30661
4.11369
4.09609
4.07816
4.04281
3.97083
3.86913
4.70024
4.69726
4.6946
4.68907
4.68067
4.66864
4.65205
4.63
4.60154
4.56576
4.52207
4.47038
4.41012
4.34065
4.26416
4.19114
4.13528
4.1011
4.07003
4.03275
3.9797
3.90156
3.80096
4.65343
4.64897
4.64441
4.63673
4.6257
4.61083
4.59122
4.56605
4.53446
4.49588
4.45031
4.39831
4.34028
4.27703
4.21153
4.14902
4.09542
4.05151
4.00816
3.95714
3.89349
3.81287
3.71523
4.60671
4.60163
4.59567
4.58631
4.57323
4.55605
4.53402
4.50644
4.47261
4.4321
4.38513
4.33246
4.27512
4.21457
4.15305
4.09337
4.03769
3.98526
3.93146
3.87074
3.79911
3.71385
3.61463
4.56121
4.55592
4.54891
4.53821
4.52348
4.50438
4.48031
4.45067
4.41492
4.37276
4.32447
4.27088
4.21324
4.15298
4.09162
4.03059
3.97045
3.91007
3.84637
3.77557
3.69495
3.60281
3.49885
4.51777
4.51242
4.50459
4.49279
4.47669
4.45598
4.43013
4.39863
4.36107
4.31726
4.26751
4.2126
4.15369
4.09199
4.02845
3.96362
3.89731
3.82831
3.75451
3.67347
3.58331
3.48254
3.37075
4.47704
4.47164
4.46316
4.45041
4.43314
4.411
4.38356
4.35034
4.31101
4.26545
4.21396
4.15723
4.0962
4.03177
3.96448
3.89437
3.82088
3.74288
3.65884
3.56702
3.466
3.35434
3.23157
4.43951
4.43401
4.42499
4.41142
4.39308
4.36966
4.34074
4.30587
4.26476
4.21732
4.1638
4.10476
4.04093
3.9729
3.90086
3.82454
3.7432
3.65579
3.56107
3.4577
3.34447
3.21975
3.083
4.4056
4.39995
4.39046
4.37614
4.35683
4.3322
4.30186
4.26539
4.22247
4.17303
4.11723
4.05551
3.98837
3.91614
3.83873
3.75564
3.66599
3.5688
3.463
3.34738
3.22066
3.08088
2.9274
4.37567
4.36985
4.35992
4.34491
4.32467
4.29889
4.26718
4.22913
4.1844
4.13288
4.07464
4.01
3.93924
3.86244
3.77931
3.68911
3.59091
3.48371
3.36651
3.23803
3.09677
2.94034
2.76799
4.35007
4.34404
4.33371
4.31804
4.29692
4.27004
4.23701
4.19743
4.15092
4.0973
4.03658
3.96889
3.89436
3.81286
3.72387
3.62651
3.51972
3.40247
3.27371
3.132
2.9755
2.80135
2.60856
4.3291
4.32286
4.31214
4.29583
4.27387
4.24596
4.2117
4.17066
4.12246
4.06683
4.00365
3.93295
3.85467
3.76851
3.67378
3.56943
3.45428
3.32719
3.18698
3.03203
2.86011
2.66793
2.45391
4.31306
4.30658
4.2955
4.27859
4.25585
4.22698
4.1916
4.14926
4.09951
4.04201
3.97654
3.90298
3.82112
3.73053
3.63038
3.51946
3.39646
3.26006
3.1089
2.94114
2.75428
2.54466
2.30997
4.30218
4.29546
4.28405
4.26659
4.24316
4.21345
4.1771
4.13363
4.08256
4.02345
3.95595
3.87981
3.79471
3.70008
3.595
3.47816
3.34807
3.20321
3.04196
2.86231
2.66157
2.43591
2.1824
4.29668
4.28975
4.27805
4.26012
4.2361
4.20569
4.16855
4.1242
4.07209
4.0117
3.94256
3.86427
3.77638
3.67827
3.56894
3.447
3.31083
3.15863
2.98852
2.79835
2.58528
2.34547
2.07563
4.29675
4.28965
4.27771
4.25942
4.23493
4.20399
4.16628
4.12132
4.06852
4.00727
3.93697
3.85708
3.76703
3.66613
3.55339
3.42737
3.28629
3.12812
2.95071
2.75173
2.52826
2.27657
1.99323
4.30249
4.29529
4.28319
4.26464
4.23984
4.20857
4.17054
4.12527
4.07216
4.01052
3.93964
3.85881
3.76737
3.66456
3.54938
3.42043
3.27579
3.11322
2.9303
2.72449
2.49283
2.23166
1.9378
4.31396
4.30674
4.29455
4.27588
4.25095
4.21956
4.18146
4.1362
4.08319
4.02167
3.95083
3.86983
3.77789
3.67419
3.55774
3.42714
3.28044
3.1152
2.92874
2.71831
2.4808
2.21258
1.91078
4.33119
4.32403
4.31184
4.29322
4.26835
4.23708
4.19919
4.15429
4.10178
4.04092
3.97078
3.89044
3.79898
3.69553
3.57911
3.44833
3.30122
3.13522
2.94738
2.7347
2.49386
2.22123
1.91362
4.35422
4.34721
4.33514
4.31672
4.29215
4.26126
4.22389
4.1797
4.12815
4.06847
3.99972
3.92089
3.83098
3.72904
3.61408
3.48475
3.33908
3.17442
2.98763
2.7754
2.53413
2.26
1.94891
4.38292
4.37613
4.36432
4.34631
4.32228
4.29207
4.25557
4.21247
4.16231
4.10437
4.03771
3.96127
3.87399
3.77488
3.66292
3.53681
3.39462
3.23365
3.05062
2.84201
2.60385
2.33184
2.02075
4.41688
4.41032
4.39894
4.38153
4.35831
4.32909
4.2938
4.25219
4.20386
4.14819
4.08428
4.01108
3.92751
3.83254
3.72515
3.60408
3.46747
3.31266
3.13638
2.93498
2.70421
2.43925
2.13362
4.45577
4.44945
4.43864
4.42202
4.39987
4.37194
4.33821
4.29847
4.25241
4.19951
4.13897
4.06979
3.99092
3.90131
3.79996
3.68566
3.55666
3.41044
3.24392
3.05349
2.83485
2.58294
2.29045
4.50007
4.49401
4.48392
4.46828
4.44744
4.42113
4.38933
4.35189
4.30858
4.25899
4.20245
4.13805
4.0648
3.9817
3.88778
3.78189
3.66242
3.52715
3.37328
3.1975
2.99584
2.76339
2.49266
4.55059
4.54479
4.53557
4.52111
4.50187
4.47754
4.44809
4.41344
4.37345
4.3278
4.27595
4.21716
4.15052
4.0751
3.99
3.89417
3.78622
3.66428
3.52599
3.36862
3.18882
2.98233
2.74227
4.60592
4.60033
4.59214
4.57902
4.56162
4.53958
4.5129
4.48153
4.44538
4.40426
4.35779
4.30533
4.24613
4.17938
4.10426
4.01989
3.92519
3.81872
3.69877
3.56337
3.41006
3.23595
3.03461
4.66161
4.65605
4.64893
4.63725
4.62178
4.6022
4.5785
4.55064
4.51861
4.48229
4.44141
4.39549
4.34391
4.286
4.22112
4.14862
4.06777
3.97769
3.8774
3.7659
3.64192
3.50364
3.34741
4.71566
4.71004
4.70388
4.69362
4.68007
4.66299
4.64232
4.61805
4.59014
4.55853
4.52302
4.48326
4.43881
4.38921
4.33402
4.27287
4.20541
4.13128
4.05022
3.96207
3.86666
3.76366
3.6524
4.77641
4.77087
4.76546
4.75677
4.74535
4.73106
4.71381
4.69355
4.67021
4.64371
4.61391
4.58066
4.54373
4.50294
4.45812
4.40918
4.35611
4.299
4.2381
4.17392
4.10718
4.03875
3.97057
4.8594
4.85344
4.84912
4.84248
4.83391
4.82331
4.81059
4.79566
4.77844
4.75885
4.73688
4.71257
4.68602
4.65734
4.62672
4.59437
4.56063
4.52603
4.49128
4.45744
4.42599
4.39914
4.38013
506.595
558.744
597.215
145.244
848.09
779.971
691.764
598.137
1004.88
944.959
890.659
860.584
1041.56
1018.47
999.543
987.924
843.784
1036.71
1082.21
1080.48
64.3364
121.356
200.505
307.44
4.88697
5.51145
8.33517
5.53247
4.51073
4.69077
4.95017
5.18965
4.48593
4.91528
7.54974
7.50386
7.4288
7.30267
7.24235
6.5435
4.2313
3.84315
3.73468
3.63712
3.82413
3.76183
3.69185
3.62093
3.78366
3.72593
3.66525
3.60327
3.71776
3.66296
3.60641
3.54905
3.63498
3.58193
3.52751
3.47218
3.53381
3.48018
3.42515
3.369
3.41495
3.35902
3.30135
3.24213
3.28093
3.22069
3.15829
3.09387
3.13306
3.06676
2.99799
2.92692
2.9731
2.89886
2.82189
2.74223
2.80353
2.71952
2.63236
2.54162
2.62805
2.53288
2.43388
2.33026
2.4508
2.34316
2.23048
2.11209
2.27711
2.15575
2.02742
1.89144
2.11439
1.97938
1.83528
1.68093
1.97007
1.82318
1.66583
1.49642
1.84928
1.69288
1.52549
1.34574
1.75572
1.59199
1.4171
1.23038
1.69202
1.52306
1.34291
1.15145
1.6589
1.48632
1.30273
1.1081
1.65664
1.48084
1.29404
1.09636
1.68759
1.50844
1.31747
1.1149
1.75677
1.57483
1.37944
1.17052
1.87107
1.68885
1.49116
1.27725
2.03669
1.85922
1.66478
1.45288
2.25692
2.09097
1.9082
1.70789
2.5329
2.38583
2.22385
2.04662
2.86072
2.73922
2.60629
2.46213
3.21603
3.12553
3.02802
2.92414
3.56441
3.50595
3.44532
3.38342
3.9226
3.89337
3.86613
3.84188
4.37514
4.3758
4.38088
4.39128
128.769
60.8187
62.3952
62.3494
62.3122
62.3845
62.4166
62.4223
62.4176
62.4246
62.4338
62.4329
62.419
62.3937
62.3613
62.3269
62.2954
62.2716
62.2589
622.646
216.681
105.194
61.9997
62.1467
62.3586
62.4479
62.4334
62.4081
62.426
62.4507
62.4534
62.4338
62.3967
62.349
62.2979
62.2513
62.216
62.1972
818.56
751.51
725.877
326.888
100.366
65.7887
62.6903
62.3813
62.3578
62.4269
62.4809
62.4865
62.4565
62.4013
62.3305
62.255
62.1862
62.1342
62.1066
963.36
930.769
921.202
896.395
870.022
487.762
126.028
63.298
62.4166
62.4738
62.541
62.5395
62.4903
62.4071
62.3025
62.1914
62.0904
62.0145
61.9743
1077.66
1068.12
1057
1045.02
1042.75
1038.08
947.586
371.205
74.3544
63.0994
62.715
62.6216
62.5388
62.4133
62.2589
62.0965
61.9495
61.8397
61.7821
473.054
798.6
1167.48
1185.89
1177.78
1170.75
1173.86
1139.54
596.598
95.9356
63.5309
62.8105
62.5974
62.4154
62.191
61.9536
61.7412
61.5842
61.5026
6.08589
41.1696
149.828
277.975
635.045
1223.92
1288.5
1267.63
1255.64
728.092
106.046
63.9221
62.7813
62.3967
62.0794
61.7363
61.4304
61.2095
61.0964
5.68454
5.29614
4.25017
3.71528
8.61685
50.1118
420.996
1283.39
1340.38
1292.47
675.586
86.4758
64.0662
62.4847
61.8944
61.3967
60.9621
60.6582
60.5067
7.17167
6.3466
3.40587
2.93009
2.92342
2.86444
2.86597
243.666
1211.87
1362.19
1233.22
443.037
73.4544
63.6976
61.6907
60.8518
60.2447
59.8467
59.6557
3.97987
3.41306
3.08226
2.94517
2.92918
2.88371
2.83917
2.80566
399.219
1333.44
1354.25
942.306
178.431
67.0886
61.5512
59.9611
59.1426
58.6617
58.4441
3.49458
3.2981
3.13662
3.03515
2.98229
2.91916
2.86979
2.82685
3.16318
892.217
1380.97
1256.61
415.992
73.5684
61.353
58.482
57.4633
56.9689
56.763
3.50312
3.34813
3.22767
3.14528
3.05562
2.96553
2.89179
2.81613
2.76322
316.616
1305.51
1275.49
721.763
102.632
60.4916
56.1874
55.0496
54.667
54.5303
3.49621
3.3551
3.23955
3.14684
3.06205
2.96372
2.87284
2.80192
2.75717
37.6665
1082.1
1290.53
945.276
149.662
58.8259
53.0453
51.9262
51.7662
51.7403
3.45102
3.32022
3.20516
3.09562
2.98744
2.87677
2.78842
2.74823
2.74978
3.56282
771.45
1308.44
1060.23
228.808
56.2445
49.2707
48.2614
48.3838
48.4963
3.37677
3.24618
3.12042
2.98997
2.88236
2.76289
2.6496
2.59116
2.54662
2.673
560.123
1278.06
1086.31
262.445
52.516
45.2546
44.3566
44.7723
44.9997
3.27213
3.13574
2.99415
2.85175
2.7131
2.58042
2.47157
2.38109
2.32687
2.26969
458.491
1250.94
1073.11
257.998
47.9256
40.6705
40.5785
41.1902
41.4729
3.1402
2.99357
2.8352
2.65754
2.51483
2.3738
2.24747
2.14048
2.1201
2.21702
497.7
1213.79
1000.9
209.746
42.0339
36.8026
37.3128
37.7887
38.095
2.98337
2.82065
2.64081
2.43605
2.28212
2.15113
2.01599
1.91069
1.92366
2.04708
602.056
1187.76
813.822
113.729
36.7782
34.1073
34.1918
34.629
34.962
2.80517
2.62218
2.41527
2.17647
1.98832
1.87644
1.74914
1.68543
1.75711
13.947
673.3
1186.65
486.18
48.2513
34.0476
31.6805
31.3568
31.7702
32.1239
2.60583
2.3984
2.16434
1.89182
1.65273
1.52488
1.42127
1.37801
1.51055
98.1901
830.603
840.23
211.395
38.2524
31.9402
29.1209
28.7943
29.2445
29.6108
2.38554
2.14282
1.87606
1.55694
1.26888
1.14866
1.0387
0.935106
8.93358
546.073
857.446
596.16
72.5443
32.1022
28.4624
26.6712
26.591
27.0526
27.419
2.14974
1.86215
1.53613
1.13406
0.791694
0.721364
0.629702
0.304603
287.2
847.999
894.698
378.084
36.9785
26.8035
25.0258
24.5019
24.7011
25.1631
25.5077
1.90226
1.56828
1.18124
0.690957
0.309246
0.279297
4.0417
218.549
774.649
816.62
752.814
169.766
29.434
23.7171
22.7736
22.6514
23.0951
23.5283
23.829
1.64611
1.25743
0.785611
0.244429
-0.0806371
-0.103964
152.314
741.829
782.633
816.138
372.754
52.3453
26.9221
21.9506
20.9443
21.1854
21.712
22.098
22.3459
1.39959
0.944848
0.331933
-0.317998
-0.767452
-0.529512
461.908
729.518
790.199
464.857
67.2192
30.3146
25.1584
20.5072
19.468
20.0128
20.5028
20.8351
21.0286
1.18901
0.681026
-0.0413853
-0.862487
-1.8718
-4.01138
494.273
716.692
363.643
64.6936
29.663
21.5817
20.0325
18.6636
18.5309
19.023
19.4367
19.7101
19.8497
1.02305
0.484405
-0.241842
-0.988136
-2.16037
62.9072
501.496
292.556
48.2437
24.9791
20.1312
18.2758
17.1701
17.3507
17.7834
18.1644
18.4809
18.6938
18.7828
0.897494
0.341722
-0.336179
-1.095
-1.82634
2.30913
523.208
303.203
23.7683
19.6536
17.2057
16.7421
16.6118
16.8232
17.118
17.384
17.6024
17.7569
17.8017
0.811281
0.250178
-0.392516
-1.17953
-1.31283
-2.15077
394.179
430.086
39.4198
18.0318
16.6204
16.3288
16.2709
16.3682
16.5038
16.6457
16.7715
16.8717
16.8825
0.762961
0.205927
-0.421352
-1.15478
-1.23038
-2.09162
296.421
446.814
166.506
17.7048
16.613
16.1834
15.9778
15.8954
15.8847
15.9163
15.9619
16.0143
16.0045
0.746525
0.192701
-0.418414
-1.10281
-1.31789
-1.84686
289.199
460.991
479.974
26.747
16.7473
15.9801
15.6029
15.3519
15.2218
15.166
15.1509
15.1637
15.1509
0.756267
0.191115
-0.432197
-1.08044
-1.27221
-1.58576
47.9592
471.492
501.491
111.586
17.456
15.8958
15.0587
14.6856
14.4767
14.3684
14.3212
14.3036
14.3078
0.797857
0.199633
-0.481182
-1.21486
-1.65885
1.20201
-0.139446
486.505
511.165
521.606
40.1893
16.4397
14.4122
13.8504
13.6243
13.5073
13.4601
13.4264
13.4622
0.890382
0.249671
-0.528329
-1.45237
-2.29524
-1.35059
-2.29157
489.257
515.762
530.468
115.902
15.4939
13.0024
12.7619
12.6395
12.5747
12.5639
12.5343
12.6053
1.06562
0.392702
-0.474069
-1.64169
-3.01017
-3.90976
-5.97919
289.634
517.716
533.067
506.605
34.17
11.2019
11.4654
11.5389
11.588
11.6378
11.6409
11.7379
1.3388
0.675831
-0.217664
-1.50846
-3.23405
-4.67786
5.46345
44.9406
522.381
539.23
446.034
22.4729
10.142
10.1014
10.414
10.5969
10.7132
10.7555
10.8665
1.71905
1.12178
0.303999
-0.897402
-2.63256
-4.96864
0.124274
31.2618
300.707
373.035
89.6586
21.0764
8.33908
8.91939
9.39929
9.66004
9.82245
9.89708
10.0039
2.19702
1.71605
1.069
0.138192
-1.2707
-3.48382
-0.399926
14.5217
14.5675
34.3582
4.22888
9.60223
7.32922
7.98068
8.53432
8.8101
8.98667
9.07862
9.1627
2.73567
2.40342
1.97622
1.39305
0.522394
-0.837047
-0.116601
2.07129
0.957869
4.87411
3.82087
5.05554
6.69057
7.30333
7.80678
8.05208
8.2128
8.30373
8.35236
3.27579
3.10297
2.90282
2.64736
2.27009
1.71727
1.48657
2.58514
3.09489
4.48417
4.79723
5.55086
6.37567
6.82829
7.18033
7.36211
7.48422
7.55896
7.57148
3.80702
3.77743
3.78073
3.81288
3.82995
3.75642
3.69301
4.058
4.62238
5.45774
5.53765
5.87308
6.22247
6.45208
6.62994
6.72999
6.80035
6.8491
6.82759
4.41984
4.50143
4.6443
4.86015
5.1164
5.29018
5.34789
5.4286
5.71372
6.08769
5.73496
5.75614
5.85679
5.92665
5.98332
6.0206
6.04571
6.06708
6.06259
)
;

boundaryField
{
    leftWall
    {
        type            fixedFluxPressure;
        gradient        uniform 0;
        value           nonuniform List<scalar> 
50
(
1337.03
1336.07
1334.17
1331.4
1327.87
1323.6
1318.84
1313.64
1304.88
1291.53
1277.96
1265.19
1255.67
1250.73
606.163
4.91809
4.9088
4.87218
4.82917
4.78926
4.74608
4.70024
4.65343
4.60671
4.56121
4.51777
4.47704
4.43951
4.4056
4.37567
4.35007
4.3291
4.31306
4.30218
4.29668
4.29675
4.30249
4.31396
4.33119
4.35422
4.38292
4.41688
4.45577
4.50007
4.55059
4.60592
4.66161
4.71566
4.77641
4.8594
)
;
    }
    rightWall
    {
        type            fixedFluxPressure;
        gradient        uniform 0;
        value           nonuniform List<scalar> 
50
(
62.3479
62.3467
62.3432
62.3375
62.3297
62.3193
62.3062
62.2899
62.2589
62.1972
62.1066
61.9743
61.7821
61.5026
61.0964
60.5067
59.6557
58.4441
56.763
54.5303
51.7403
48.4963
44.9997
41.4729
38.095
34.962
32.1239
29.6108
27.419
25.5077
23.829
22.3459
21.0286
19.8497
18.7828
17.8017
16.8825
16.0045
15.1509
14.3078
13.4622
12.6053
11.7379
10.8665
10.0039
9.1627
8.35236
7.57148
6.82759
6.06259
)
;
    }
    lowerWall
    {
        type            fixedFluxPressure;
        gradient        uniform 0;
        value           nonuniform List<scalar> 
62
(
1337.03
1341.67
1346.77
1347.14
1340.94
1330.27
1318.05
1305.96
1294.7
1284.74
1276.66
1271.22
1269.46
1272.71
1283.05
1302.03
1331.09
1369.61
1411.51
1442.33
1438.69
1412.8
1455.33
1455.33
1455.11
1468.87
1494.83
1506.08
1484.75
1416.23
1290.09
506.595
558.744
597.215
145.244
62.4245
62.4221
62.4157
62.408
62.4065
62.5153
62.7172
62.6871
62.4245
62.3654
62.3327
62.3367
62.3489
62.3638
62.3803
62.3941
62.4032
62.4079
62.4089
62.4063
62.3999
62.3909
62.38
62.3689
62.3591
62.3518
62.3479
)
;
    }
    atmosphere
    {
        type            prghTotalPressure;
        rho             rho;
        psi             none;
        gamma           1;
        p0              uniform 0;
        value           nonuniform List<scalar> 
46
(
4.92074
4.91307
4.91018
4.90502
4.89846
4.89044
4.88089
4.86972
4.85687
4.8423
4.82609
4.80841
4.78952
4.76976
4.74948
4.7291
4.70919
4.69049
4.67398
4.66097
4.65329
4.65349
4.6651
4.68474
4.70195
4.72393
4.7511
4.81007
4.93076
5.10059
5.31324
5.53482
5.69992
5.7328
5.76327
5.95884
6.25852
5.83588
5.73715
5.72991
5.7291
5.72904
5.72904
5.72904
5.72904
5.72904
)
;
        rho             rho;
    }
    defaultFaces
    {
        type            empty;
    }
}


// ************************************************************************* //
