/*--------------------------------*- C++ -*----------------------------------*\
  =========                 |
  \\      /  F ield         | OpenFOAM: The Open Source CFD Toolbox
   \\    /   O peration     | Website:  https://openfoam.org
    \\  /    A nd           | Version:  13
     \\/     M anipulation  |
\*---------------------------------------------------------------------------*/
FoamFile
{
    format      ascii;
    class       surfaceScalarField;
    location    "0.3";
    object      phi;
}
// * * * * * * * * * * * * * * * * * * * * * * * * * * * * * * * * * * * * * //

dimensions      [0 3 -1 0 0 0 0];

internalField   nonuniform List<scalar> 
4432
(
-9.379e-07
9.379e-07
2.70002e-06
-3.63792e-06
8.79426e-06
-6.09424e-06
1.53287e-05
-6.53443e-06
2.12038e-05
-5.87509e-06
2.6149e-05
-4.94519e-06
3.03078e-05
-4.15884e-06
3.39259e-05
-3.61811e-06
3.72014e-05
-3.27546e-06
4.0234e-05
-3.03258e-06
4.30252e-05
-2.79123e-06
4.54978e-05
-2.47256e-06
4.7512e-05
-2.01423e-06
4.88535e-05
-1.34155e-06
4.90566e-05
-2.03037e-07
4.72206e-05
1.83597e-06
4.21082e-05
5.11247e-06
3.22858e-05
9.82234e-06
1.73758e-05
1.49101e-05
-1.98262e-07
1.7574e-05
-1.28923e-05
1.2694e-05
-1.60539e-05
3.16166e-06
-1.6054e-05
-8.58355e-07
1.79625e-06
2.85044e-06
-7.34672e-06
8.96476e-06
-1.22086e-05
1.54761e-05
-1.30458e-05
2.13201e-05
-1.17191e-05
2.62469e-05
-9.87201e-06
3.04099e-05
-8.32184e-06
3.40569e-05
-7.26505e-06
3.73805e-05
-6.59914e-06
4.04732e-05
-6.1253e-06
4.33308e-05
-5.64883e-06
4.58748e-05
-5.01655e-06
4.79716e-05
-4.11104e-06
4.9451e-05
-2.82087e-06
5.03115e-05
-1.06353e-06
5.06695e-05
1.47795e-06
5.04127e-05
5.3692e-06
4.82549e-05
1.19801e-05
4.11588e-05
2.20062e-05
2.62686e-05
3.24642e-05
6.01211e-06
3.29505e-05
-4.09458e-06
1.32684e-05
-2.01485e-05
-6.92281e-07
2.48854e-06
3.09398e-06
-1.1133e-05
9.20435e-06
-1.83189e-05
1.56222e-05
-1.94637e-05
2.13464e-05
-1.74433e-05
2.61796e-05
-1.47052e-05
3.02996e-05
-1.24419e-05
3.3956e-05
-1.09214e-05
3.73288e-05
-9.97193e-06
4.0494e-05
-9.29052e-06
4.34358e-05
-8.59058e-06
4.60712e-05
-7.652e-06
4.8274e-05
-6.31388e-06
4.9893e-05
-4.43979e-06
5.0719e-05
-1.88951e-06
5.06195e-05
1.57736e-06
4.96892e-05
6.29958e-06
4.86146e-05
1.30547e-05
4.73482e-05
2.32726e-05
4.26874e-05
3.71251e-05
3.01476e-05
4.54903e-05
1.31376e-05
3.02784e-05
-7.01099e-06
-4.45681e-07
2.93422e-06
3.45134e-06
-1.503e-05
9.54341e-06
-2.4411e-05
1.58226e-05
-2.57428e-05
2.13766e-05
-2.29973e-05
2.60846e-05
-1.94132e-05
3.01575e-05
-1.65148e-05
3.38416e-05
-1.46055e-05
3.72954e-05
-1.34257e-05
4.05712e-05
-1.25663e-05
4.36369e-05
-1.16563e-05
4.64044e-05
-1.04195e-05
4.87505e-05
-8.66006e-06
5.05302e-05
-6.21943e-06
5.15769e-05
-2.93624e-06
5.17324e-05
1.42187e-06
5.08744e-05
7.15762e-06
4.92696e-05
1.46595e-05
4.81387e-05
2.44034e-05
4.75581e-05
3.77057e-05
4.17828e-05
5.12656e-05
2.47889e-05
4.72723e-05
1.77779e-05
-1.06219e-07
3.04043e-06
3.89897e-06
-1.90352e-05
9.94564e-06
-3.04577e-05
1.60393e-05
-3.18365e-05
2.13815e-05
-2.83394e-05
2.59447e-05
-2.39764e-05
2.99753e-05
-2.05454e-05
3.37084e-05
-1.83386e-05
3.72719e-05
-1.69892e-05
4.06882e-05
-1.59826e-05
4.39068e-05
-1.48749e-05
4.68342e-05
-1.33468e-05
4.93526e-05
-1.11785e-05
5.13307e-05
-8.1975e-06
5.26274e-05
-4.233e-06
5.31176e-05
9.31653e-07
5.27129e-05
7.5624e-06
5.13728e-05
1.59995e-05
4.94709e-05
2.63053e-05
4.83479e-05
3.88287e-05
4.51824e-05
5.44311e-05
3.05231e-05
6.19315e-05
4.8301e-05
2.13607e-07
2.82683e-06
4.41107e-06
-2.32327e-05
1.03864e-05
-3.6433e-05
1.62503e-05
-3.77005e-05
2.13508e-05
-3.34399e-05
2.57645e-05
-2.83901e-05
2.97679e-05
-2.45489e-05
3.35745e-05
-2.21451e-05
3.72725e-05
-2.06873e-05
4.08511e-05
-1.95612e-05
4.42414e-05
-1.82652e-05
4.73467e-05
-1.64521e-05
5.00577e-05
-1.38895e-05
5.22576e-05
-1.03975e-05
5.3826e-05
-5.80132e-06
5.46581e-05
9.94648e-08
5.46795e-05
7.54103e-06
5.38607e-05
1.68184e-05
5.1993e-05
2.81729e-05
4.96021e-05
4.12197e-05
4.60972e-05
5.7936e-05
3.31489e-05
7.48798e-05
8.14499e-05
5.91855e-07
2.23497e-06
4.98013e-06
-2.76209e-05
1.08498e-05
-4.23027e-05
1.6445e-05
-4.32957e-05
2.12885e-05
-3.82834e-05
2.5563e-05
-3.26646e-05
2.95639e-05
-2.85498e-05
3.34701e-05
-2.60513e-05
3.73242e-05
-2.45414e-05
4.10815e-05
-2.33186e-05
4.46584e-05
-2.1842e-05
4.79589e-05
-1.97527e-05
5.08841e-05
-1.68146e-05
5.33296e-05
-1.2843e-05
5.51875e-05
-7.65916e-06
5.63616e-05
-1.0747e-06
5.67868e-05
7.11591e-06
5.64417e-05
1.71635e-05
5.50981e-05
2.95165e-05
5.24051e-05
4.39126e-05
4.80045e-05
6.23366e-05
3.71622e-05
8.57222e-05
0.000118612
1.01704e-06
1.21793e-06
5.5888e-06
-3.21927e-05
1.13194e-05
-4.80333e-05
1.6627e-05
-4.86032e-05
2.12227e-05
-4.28791e-05
2.53864e-05
-3.68283e-05
2.94174e-05
-3.25807e-05
3.34505e-05
-3.00844e-05
3.74807e-05
-2.85717e-05
4.14337e-05
-2.72715e-05
4.52165e-05
-2.56248e-05
4.87386e-05
-2.32748e-05
5.19101e-05
-1.99861e-05
5.46318e-05
-1.55648e-05
5.67963e-05
-9.82366e-06
5.83112e-05
-2.58962e-06
5.91243e-05
6.3029e-06
5.92086e-05
1.70791e-05
5.84727e-05
3.02524e-05
5.64013e-05
4.5984e-05
5.18641e-05
6.68738e-05
4.1122e-05
9.64643e-05
0.000159734
1.79666e-05
-1.79666e-05
2.45399e-05
-6.57329e-06
2.15936e-05
2.9462e-06
1.91436e-05
2.44998e-06
1.82182e-05
9.25494e-07
1.82802e-05
-6.19322e-08
1.9247e-05
-9.66724e-07
2.06158e-05
-1.36869e-06
2.18659e-05
-1.25003e-06
2.26923e-05
-8.26492e-07
2.28605e-05
-1.68286e-07
2.22473e-05
6.13159e-07
2.08619e-05
1.38545e-06
1.8731e-05
2.13085e-06
1.59074e-05
2.82355e-06
1.24885e-05
3.41896e-06
8.59355e-06
3.89472e-06
4.37089e-06
4.22258e-06
4.3707e-06
2.04592e-05
-3.84258e-05
2.57408e-05
-1.18549e-05
2.21374e-05
6.54975e-06
1.98391e-05
4.74833e-06
1.89273e-05
1.83743e-06
1.91716e-05
-3.06036e-07
2.04124e-05
-2.20752e-06
2.20316e-05
-2.98789e-06
2.35228e-05
-2.74125e-06
2.46181e-05
-1.9219e-06
2.51438e-05
-6.93972e-07
2.49526e-05
8.04303e-07
2.38792e-05
2.45883e-06
2.18491e-05
4.16084e-06
1.88687e-05
5.80377e-06
1.50155e-05
7.27211e-06
1.0436e-05
8.47389e-06
5.33476e-06
9.32343e-06
9.70552e-06
2.61679e-05
-6.45937e-05
2.80813e-05
-1.37683e-05
2.20792e-05
1.2552e-05
1.95943e-05
7.23325e-06
1.84616e-05
2.97025e-06
1.88369e-05
-6.81286e-07
2.02674e-05
-3.638e-06
2.20111e-05
-4.73148e-06
2.35996e-05
-4.32976e-06
2.47318e-05
-3.05406e-06
2.52216e-05
-1.18391e-06
2.49428e-05
1.08299e-06
2.38023e-05
3.59937e-06
2.17422e-05
6.22076e-06
1.8763e-05
8.78283e-06
1.49316e-05
1.11033e-05
1.03809e-05
1.30246e-05
5.30718e-06
1.43971e-05
1.50128e-05
3.02636e-05
-9.48573e-05
2.89833e-05
-1.24879e-05
2.19948e-05
1.95406e-05
1.91712e-05
1.00568e-05
1.75803e-05
4.5612e-06
1.83063e-05
-1.40717e-06
2.00653e-05
-5.39703e-06
2.20204e-05
-6.68654e-06
2.37754e-05
-6.08469e-06
2.50165e-05
-4.29526e-06
2.55586e-05
-1.72606e-06
2.52817e-05
1.35971e-06
2.41064e-05
4.7746e-06
2.19891e-05
8.33799e-06
1.89476e-05
1.18241e-05
1.50563e-05
1.49946e-05
1.04549e-05
1.76261e-05
5.34313e-06
1.95091e-05
2.03561e-05
2.83602e-05
-0.000123217
2.51808e-05
-9.30837e-06
2.0948e-05
2.37735e-05
1.79168e-05
1.3088e-05
1.60836e-05
6.39435e-06
1.76081e-05
-2.93159e-06
1.98083e-05
-7.59718e-06
2.20509e-05
-8.92902e-06
2.40426e-05
-8.07636e-06
2.54388e-05
-5.69155e-06
2.60793e-05
-2.36668e-06
2.58614e-05
1.57745e-06
2.4704e-05
5.93186e-06
2.25606e-05
1.04813e-05
1.94521e-05
1.49328e-05
1.546e-05
1.89869e-05
1.07378e-05
2.23484e-05
5.48823e-06
2.47587e-05
2.58444e-05
1.98555e-05
-0.000143073
1.58651e-05
-5.3179e-06
1.81651e-05
2.14734e-05
1.52659e-05
1.59872e-05
1.39518e-05
7.70843e-06
1.67268e-05
-5.70643e-06
1.94348e-05
-1.03051e-05
2.20892e-05
-1.15833e-05
2.43934e-05
-1.03806e-05
2.5987e-05
-7.28526e-06
2.6755e-05
-3.13477e-06
2.66165e-05
1.71584e-06
2.54921e-05
7.05625e-06
2.33332e-05
1.26403e-05
2.01519e-05
1.81142e-05
1.60383e-05
2.31005e-05
1.11487e-05
2.72382e-05
5.70134e-06
3.02059e-05
3.15456e-05
1.01238e-05
-0.000153197
-2.6696e-06
7.47546e-06
2.90371e-06
1.59002e-05
9.81422e-06
9.0767e-06
1.1685e-05
5.83767e-06
1.5958e-05
-9.97936e-06
1.90036e-05
-1.33506e-05
2.21705e-05
-1.47502e-05
2.48478e-05
-1.3058e-05
2.66575e-05
-9.095e-06
2.75784e-05
-4.05571e-06
2.75419e-05
1.7525e-06
2.646e-05
8.13823e-06
2.42836e-05
1.48166e-05
2.10211e-05
2.13766e-05
1.6757e-05
2.73646e-05
1.1661e-05
3.23339e-05
5.96764e-06
3.58991e-05
3.75131e-05
-1.26153e-06
-0.000151935
-3.96877e-05
4.59016e-05
-1.66571e-05
-7.13045e-06
3.60435e-06
-1.11847e-05
9.9357e-06
-4.93642e-07
1.57967e-05
-1.58403e-05
1.88353e-05
-1.63892e-05
2.24862e-05
-1.84011e-05
2.54784e-05
-1.60501e-05
2.74924e-05
-1.11089e-05
2.85717e-05
-5.13493e-06
2.86461e-05
1.67809e-06
2.76146e-05
9.16967e-06
2.54192e-05
1.70121e-05
2.20565e-05
2.4739e-05
1.76148e-05
3.18062e-05
1.22732e-05
3.76755e-05
6.28537e-06
4.18867e-05
4.37985e-05
3.58702e-06
-2.36909e-06
1.38765e-05
-4.24822e-05
2.56312e-05
-5.97879e-05
3.60034e-05
-5.89755e-05
4.50639e-05
-5.19395e-05
5.37168e-05
-4.54812e-05
6.2529e-05
-4.13929e-05
7.15973e-05
-3.91527e-05
8.07625e-05
-3.77369e-05
8.97964e-05
-3.63054e-05
9.84995e-05
-3.43279e-05
0.000106706
-3.14817e-05
0.000114254
-2.75332e-05
0.000120957
-2.22679e-05
0.000126631
-1.54981e-05
0.000131112
-7.07067e-06
0.00013433
3.08515e-06
0.000136162
1.52467e-05
0.000136708
2.97065e-05
0.000135945
4.67469e-05
0.000134892
6.7927e-05
0.000140448
9.09087e-05
0.000129865
0.000170317
5.66367e-06
-8.03276e-06
1.66459e-05
-5.34644e-05
2.75498e-05
-7.06918e-05
3.6697e-05
-6.81227e-05
4.50199e-05
-6.02624e-05
5.36162e-05
-5.40775e-05
6.28321e-05
-5.06088e-05
7.24849e-05
-4.88055e-05
8.22474e-05
-4.74994e-05
9.18435e-05
-4.59015e-05
0.000101105
-4.35889e-05
0.000109911
-4.02885e-05
0.000118187
-3.5809e-05
0.000125851
-2.99323e-05
0.000132873
-2.25201e-05
0.000139422
-1.36193e-05
0.000145176
-2.66861e-06
0.000150374
1.00487e-05
0.000154825
2.52557e-05
0.000159646
4.19257e-05
0.000167996
5.95772e-05
0.000182897
7.60077e-05
9.89835e-05
0.000213778
8.03778e-06
-1.60705e-05
1.93156e-05
-6.47422e-05
2.88203e-05
-8.01966e-05
3.66251e-05
-7.59275e-05
4.4393e-05
-6.80303e-05
5.3029e-05
-6.27136e-05
6.24523e-05
-6.00321e-05
7.22223e-05
-5.85755e-05
8.1974e-05
-5.72511e-05
9.15083e-05
-5.54358e-05
0.000100771
-5.28516e-05
0.000109723
-4.92402e-05
0.000118536
-4.46226e-05
0.000127349
-3.87449e-05
0.000136041
-3.12126e-05
0.000144198
-2.17754e-05
0.000152314
-1.07847e-05
0.000161037
1.32545e-06
0.000167432
1.88602e-05
0.000174484
3.48737e-05
0.000184254
4.98076e-05
0.000196214
6.40473e-05
7.72092e-05
0.000217989
1.11831e-05
-2.72537e-05
2.23001e-05
-7.58591e-05
2.94262e-05
-8.73227e-05
3.55215e-05
-8.20228e-05
4.28422e-05
-7.5351e-05
5.15902e-05
-7.14616e-05
6.11446e-05
-6.95865e-05
7.10238e-05
-6.84546e-05
8.10795e-05
-6.73068e-05
9.13919e-05
-6.57483e-05
0.000102268
-6.37276e-05
0.00011358
-6.05522e-05
0.000125565
-5.66076e-05
0.000138762
-5.19423e-05
0.000153364
-4.58142e-05
0.000168478
-3.68894e-05
0.000181882
-2.41891e-05
0.000189362
-6.15462e-06
0.000193008
1.52145e-05
0.000194743
3.31389e-05
0.000198387
4.61637e-05
0.000205523
5.69113e-05
6.42608e-05
0.000218471
1.63e-05
-4.35536e-05
2.79949e-05
-8.75541e-05
3.11131e-05
-9.04409e-05
3.49456e-05
-8.58553e-05
4.2435e-05
-8.28405e-05
5.23862e-05
-8.14128e-05
6.33996e-05
-8.05999e-05
7.51475e-05
-8.02025e-05
8.79308e-05
-8.00901e-05
0.000102435
-8.02523e-05
0.000119653
-8.09463e-05
0.000137475
-7.83739e-05
0.00015693
-7.60625e-05
0.000179603
-7.46148e-05
0.000205287
-7.14988e-05
0.000230827
-6.24291e-05
0.000251612
-4.49747e-05
0.000255445
-9.98776e-06
0.000247358
2.33018e-05
0.000234589
4.59083e-05
0.000223478
5.72744e-05
0.000218803
6.15863e-05
6.22931e-05
0.000220771
2.49859e-05
-6.85395e-05
3.80196e-05
-0.000100588
3.62167e-05
-8.8638e-05
3.84188e-05
-8.80574e-05
4.75768e-05
-9.19985e-05
6.02232e-05
-9.40592e-05
7.38785e-05
-9.42552e-05
8.89882e-05
-9.53123e-05
0.00010683
-9.79314e-05
0.000129371
-0.000102794
0.000154022
-0.000105597
0.000173743
-9.80948e-05
0.000198893
-0.000101213
0.000225534
-0.000101255
0.000252834
-9.87992e-05
0.000275914
-8.55094e-05
0.000289307
-5.83673e-05
0.000293425
-1.41052e-05
0.000289079
2.76475e-05
0.00027842
5.65675e-05
0.000263311
7.23836e-05
0.000244614
8.02831e-05
7.58622e-05
0.000231045
3.27777e-05
-0.000101317
4.48183e-05
-0.000112628
4.55685e-05
-8.93882e-05
4.91461e-05
-9.1635e-05
5.9615e-05
-0.000102467
7.02443e-05
-0.000104688
8.01178e-05
-0.000104129
9.03934e-05
-0.000105588
0.000102105
-0.000109643
0.000116091
-0.00011678
0.00013475
-0.000124256
0.000163809
-0.000127154
0.000191002
-0.000128406
0.00022026
-0.000130513
0.000251073
-0.000129612
0.000277421
-0.000111857
0.000293917
-7.48632e-05
0.000305144
-2.53317e-05
0.000307639
2.51526e-05
0.00030108
6.31269e-05
0.000289932
8.35311e-05
0.000278722
9.14929e-05
8.89927e-05
0.000265592
9.63444e-06
-0.000110952
1.74821e-05
-0.000120476
3.39625e-05
-0.000105869
4.22718e-05
-9.99444e-05
4.5894e-05
-0.00010609
5.18245e-05
-0.000110619
6.01254e-05
-0.00011243
7.01793e-05
-0.000115642
8.35953e-05
-0.000123059
0.00010122
-0.000134404
0.000122302
-0.000145338
0.000146047
-0.000150899
0.000170444
-0.000152802
0.000196387
-0.000156457
0.000225958
-0.000159182
0.000251271
-0.000137171
0.000266942
-9.05343e-05
0.000273951
-3.234e-05
0.000271913
2.71907e-05
0.000264557
7.04827e-05
0.000259751
8.83375e-05
0.000265975
8.52685e-05
7.29243e-05
0.000282043
-6.37009e-06
-0.000104582
-7.10644e-07
-0.000126136
1.38642e-05
-0.000120444
2.79789e-05
-0.000114059
3.65133e-05
-0.000114624
4.3259e-05
-0.000117365
5.09517e-05
-0.000120122
6.03694e-05
-0.000125059
7.22076e-05
-0.000134897
8.63409e-05
-0.000148538
0.00010209
-0.000161087
0.000118367
-0.000167176
0.000132801
-0.000167236
0.000147352
-0.000171008
0.000164589
-0.00017642
0.000176854
-0.000149436
0.000184898
-9.85776e-05
0.000187991
-3.54333e-05
0.000192306
2.28751e-05
0.000202043
6.07466e-05
0.000222063
6.83173e-05
0.00025297
5.43613e-05
3.95239e-05
0.000286371
-2.37591e-06
-0.000102206
7.74521e-06
-0.000136257
1.60984e-05
-0.000128797
2.50335e-05
-0.000122994
3.30792e-05
-0.00012267
4.01589e-05
-0.000124444
4.69852e-05
-0.000126949
5.39527e-05
-0.000132027
6.10881e-05
-0.000142032
6.81529e-05
-0.000155602
7.50843e-05
-0.000168019
8.1618e-05
-0.000173709
8.53214e-05
-0.000170939
8.57052e-05
-0.000171391
8.32601e-05
-0.000173975
7.97323e-05
-0.000145908
8.02822e-05
-9.91275e-05
9.08299e-05
-4.59811e-05
0.000116566
-2.86081e-06
0.000157287
2.00253e-05
0.000201055
2.45493e-05
0.000240223
1.5194e-05
8.33395e-06
0.000271412
5.23488e-06
-0.00010744
1.15821e-05
-0.000142604
1.72145e-05
-0.000134429
2.40528e-05
-0.000129833
3.11378e-05
-0.000129755
3.75938e-05
-0.0001309
4.32221e-05
-0.000132577
4.77719e-05
-0.000136577
5.07331e-05
-0.000144994
5.18609e-05
-0.00015673
5.13868e-05
-0.000167544
4.97826e-05
-0.000172105
4.61866e-05
-0.000167343
3.8319e-05
-0.000163524
2.93044e-05
-0.00016496
3.13714e-05
-0.000147975
4.53996e-05
-0.000113156
7.3072e-05
-7.36535e-05
0.000111894
-4.16825e-05
0.00015195
-2.0031e-05
0.000185715
-9.21596e-06
0.000210801
-9.89162e-06
-1.13055e-05
0.000230441
7.54872e-06
-0.000114989
1.22175e-05
-0.000147273
1.7085e-05
-0.000139297
2.33622e-05
-0.00013611
2.98374e-05
-0.00013623
3.58308e-05
-0.000136894
4.09761e-05
-0.000137723
4.45842e-05
-0.000140185
4.57664e-05
-0.000146176
4.41538e-05
-0.000155118
4.02198e-05
-0.00016361
3.54572e-05
-0.000167342
3.17564e-05
-0.000163642
2.68245e-05
-0.000158592
1.96935e-05
-0.000157829
2.31578e-05
-0.000151439
3.80684e-05
-0.000128066
6.04387e-05
-9.60239e-05
8.8195e-05
-6.94388e-05
0.000116425
-4.82614e-05
0.000141903
-3.46933e-05
0.000163196
-3.11845e-05
-3.1774e-05
0.000183664
8.00135e-06
-0.00012299
1.22451e-05
-0.000151516
1.71837e-05
-0.000144235
2.31173e-05
-0.000142044
2.91646e-05
-0.000142278
3.49963e-05
-0.000142726
4.03427e-05
-0.000143069
4.44584e-05
-0.000144301
4.62863e-05
-0.000148004
4.53225e-05
-0.000154154
4.22121e-05
-0.0001605
3.8836e-05
-0.000163966
3.79432e-05
-0.000162749
3.84184e-05
-0.000159067
3.52614e-05
-0.000154672
3.17353e-05
-0.000147914
3.6551e-05
-0.000132882
5.00512e-05
-0.000109524
7.0394e-05
-8.97814e-05
9.68326e-05
-7.46999e-05
0.000126627
-6.44881e-05
0.000155278
-5.9835e-05
-5.85277e-05
0.000182031
7.90839e-06
-0.000130899
1.20849e-05
-0.000155693
1.71254e-05
-0.000149276
2.28555e-05
-0.000147774
2.86817e-05
-0.000148104
3.45008e-05
-0.000148545
4.02723e-05
-0.000148841
4.5471e-05
-0.000149499
4.90993e-05
-0.000151632
5.05484e-05
-0.000155603
5.02282e-05
-0.00016018
4.95027e-05
-0.000163241
5.01182e-05
-0.000163365
5.17631e-05
-0.000160712
5.27617e-05
-0.000155671
5.31944e-05
-0.000148346
5.744e-05
-0.000137128
7.06379e-05
-0.000122722
8.96685e-05
-0.000108812
0.000112621
-9.76522e-05
0.000137689
-8.9556e-05
0.000162463
-8.46091e-05
-8.22401e-05
0.000186175
7.4402e-06
-0.000138339
1.18104e-05
-0.000160063
1.69372e-05
-0.000154403
2.25295e-05
-0.000153366
2.82079e-05
-0.000153782
3.39638e-05
-0.000154301
3.9898e-05
-0.000154775
4.57717e-05
-0.000155373
5.0854e-05
-0.000156714
5.44943e-05
-0.000159244
5.66841e-05
-0.00016237
5.80814e-05
-0.000164638
5.95952e-05
-0.000164879
6.16915e-05
-0.000162808
6.46337e-05
-0.000158614
6.87737e-05
-0.000152487
7.5801e-05
-0.000144155
8.73634e-05
-0.000134284
0.00010307
-0.000124519
0.000121875
-0.000116457
0.000142875
-0.000110556
0.00016482
-0.000106554
-0.000104254
0.000186834
6.92312e-06
-0.000145262
1.14888e-05
-0.000164629
1.66587e-05
-0.000159572
2.21412e-05
-0.000158848
2.76775e-05
-0.000159319
3.32795e-05
-0.000159903
3.90474e-05
-0.000160542
4.49415e-05
-0.000161267
5.05499e-05
-0.000162323
5.52872e-05
-0.000163981
5.88773e-05
-0.00016596
6.1636e-05
-0.000167397
6.42258e-05
-0.000167468
6.72641e-05
-0.000165847
7.13262e-05
-0.000162676
7.688e-05
-0.00015804
8.48455e-05
-0.000152121
9.60038e-05
-0.000145443
0.000110486
-0.000139002
0.000127695
-0.000133666
0.000146875
-0.000129735
0.000167227
-0.000126906
-0.000125171
0.000188144
6.47424e-06
-0.000151736
1.11687e-05
-0.000169323
1.63231e-05
-0.000164727
2.16952e-05
-0.00016422
2.7098e-05
-0.000164721
3.25296e-05
-0.000165334
3.80319e-05
-0.000166045
4.36269e-05
-0.000166862
4.91352e-05
-0.000167831
5.41674e-05
-0.000169013
5.84808e-05
-0.000170273
6.22637e-05
-0.00017118
6.60046e-05
-0.000171209
7.02585e-05
-0.000170101
7.55109e-05
-0.000167928
8.23015e-05
-0.000164831
9.11943e-05
-0.000161014
0.000102587
-0.000156835
0.000116452
-0.000152866
0.00013243
-0.000149645
0.00015009
-0.000147395
0.000169029
-0.000145845
-0.000145065
0.000188923
6.10332e-06
-0.00015784
1.08528e-05
-0.000174073
1.5955e-05
-0.000169829
2.12156e-05
-0.000169481
2.64994e-05
-0.000170005
3.17956e-05
-0.00017063
3.7106e-05
-0.000171355
4.24401e-05
-0.000172196
4.77392e-05
-0.00017313
5.28465e-05
-0.00017412
5.7652e-05
-0.000175079
6.22657e-05
-0.000175793
6.70405e-05
-0.000175984
7.24142e-05
-0.000175474
7.8773e-05
-0.000174287
8.64656e-05
-0.000172523
9.58153e-05
-0.000170363
0.000107046
-0.000168066
0.000120208
-0.000166029
0.000135192
-0.000164628
0.000151773
-0.000163976
0.000169717
-0.000163788
-0.000164191
0.000188843
5.79955e-06
-0.000163639
1.05409e-05
-0.000178814
1.55651e-05
-0.000174853
2.07119e-05
-0.000174628
2.58835e-05
-0.000175176
3.10759e-05
-0.000175823
3.6284e-05
-0.000176563
4.15002e-05
-0.000177413
4.67157e-05
-0.000178346
5.19076e-05
-0.000179312
5.70674e-05
-0.000180239
6.22844e-05
-0.000181011
6.77852e-05
-0.000181485
7.38779e-05
-0.000181567
8.08476e-05
-0.000181256
8.8952e-05
-0.000180628
9.84118e-05
-0.000179823
0.000109418
-0.000179072
0.000122068
-0.000178679
0.000136334
-0.000178895
0.000152096
-0.000179738
0.000169227
-0.000180918
-0.000182635
0.00018767
5.54657e-06
-0.000169186
1.02289e-05
-0.000183496
1.51544e-05
-0.000179779
2.01828e-05
-0.000179656
2.52399e-05
-0.000180234
3.03314e-05
-0.000180914
3.54636e-05
-0.000181696
4.06341e-05
-0.000182583
4.5848e-05
-0.00018356
5.11241e-05
-0.000184589
5.65013e-05
-0.000185616
6.20677e-05
-0.000186577
6.79848e-05
-0.000187402
7.44663e-05
-0.000188048
8.17286e-05
-0.000188519
8.99779e-05
-0.000188877
9.94036e-05
-0.000189249
0.000110163
-0.000189831
0.000122344
-0.00019086
0.000135966
-0.000192516
0.000150988
-0.000194761
0.00016738
-0.00019731
-0.000200435
0.000185181
5.3264e-06
-0.000174512
9.91146e-06
-0.000188081
1.47202e-05
-0.000184587
1.96212e-05
-0.000184557
2.45551e-05
-0.000185167
2.95341e-05
-0.000185893
3.45749e-05
-0.000186736
3.96879e-05
-0.000187696
4.48878e-05
-0.00018876
5.02028e-05
-0.000189904
5.56857e-05
-0.000191099
6.14219e-05
-0.000192313
6.75369e-05
-0.000193517
7.4189e-05
-0.0001947
8.15491e-05
-0.000195879
8.97868e-05
-0.000197115
9.90572e-05
-0.000198519
0.000109487
-0.000200261
0.000121163
-0.000202537
0.000134137
-0.000205489
0.000148426
-0.00020905
0.000164066
-0.000212951
-0.000217534
0.000181165
5.1242e-06
-0.000179636
9.58332e-06
-0.00019254
1.42587e-05
-0.000189263
1.90205e-05
-0.000189319
2.38196e-05
-0.000189967
2.86721e-05
-0.000190746
3.35978e-05
-0.000191662
3.86171e-05
-0.000192715
4.37548e-05
-0.000193897
4.90453e-05
-0.000195194
5.45409e-05
-0.000196594
6.03171e-05
-0.000198089
6.6476e-05
-0.000199676
7.31411e-05
-0.000201365
8.04495e-05
-0.000203187
8.85382e-05
-0.000205204
9.75339e-05
-0.000207515
0.000107543
-0.00021027
0.000118652
-0.000213646
0.000130929
-0.000217767
0.000144431
-0.000222552
0.000159237
-0.000227756
-0.000233784
0.000175487
4.92976e-06
-0.000184566
9.2408e-06
-0.000196851
1.37667e-05
-0.000193789
1.83754e-05
-0.000193927
2.30256e-05
-0.000194617
2.77351e-05
-0.000195455
3.25253e-05
-0.000196452
3.742e-05
-0.00019761
4.24493e-05
-0.000198927
4.7651e-05
-0.000200396
5.30747e-05
-0.000202018
5.87855e-05
-0.0002038
6.48666e-05
-0.000205757
7.14168e-05
-0.000207916
7.85459e-05
-0.000210316
8.63632e-05
-0.000213021
9.4972e-05
-0.000216124
0.000104466
-0.000219764
0.000114927
-0.000224106
0.000126433
-0.000229273
0.000139062
-0.000235181
0.000152916
-0.00024161
-0.000249029
0.000168162
4.73614e-06
-0.000189302
8.88063e-06
-0.000200996
1.32418e-05
-0.00019815
1.76824e-05
-0.000198368
2.21669e-05
-0.000199101
2.67145e-05
-0.000200003
3.13468e-05
-0.000201084
3.60882e-05
-0.000202352
4.09684e-05
-0.000203807
4.60248e-05
-0.000205452
5.13035e-05
-0.000207297
5.68608e-05
-0.000209357
6.27642e-05
-0.00021166
6.90924e-05
-0.000214244
7.59316e-05
-0.000217156
8.33709e-05
-0.00022046
9.14953e-05
-0.000224248
0.000100383
-0.000228652
0.000110108
-0.000233832
0.000120749
-0.000239914
0.000132389
-0.000246821
0.000145137
-0.000254359
-0.000263067
0.000159175
4.53767e-06
-0.00019384
8.49988e-06
-0.000204958
1.26821e-05
-0.000202332
1.69396e-05
-0.000202625
2.12416e-05
-0.000203403
2.56069e-05
-0.000204368
3.00567e-05
-0.000205534
3.46147e-05
-0.00020691
3.93081e-05
-0.0002085
4.41714e-05
-0.000210316
4.92447e-05
-0.00021237
5.45758e-05
-0.000214688
6.02196e-05
-0.000217304
6.62385e-05
-0.000220263
7.26997e-05
-0.000223617
7.96726e-05
-0.000227433
8.72272e-05
-0.000231803
9.54245e-05
-0.000236849
0.000104328
-0.000242735
0.000114002
-0.000249588
0.000124523
-0.000257342
0.000135986
-0.000265821
-0.000275623
0.000148542
4.33105e-06
-0.000198171
8.09715e-06
-0.000208724
1.20872e-05
-0.000206322
1.61472e-05
-0.000206685
2.02504e-05
-0.000207506
2.44143e-05
-0.000208532
2.86585e-05
-0.000209778
3.30046e-05
-0.000211256
3.74773e-05
-0.000212973
4.2106e-05
-0.000214944
4.69241e-05
-0.000217188
5.19706e-05
-0.000219735
5.7289e-05
-0.000222623
6.29276e-05
-0.000225902
6.89391e-05
-0.000229628
7.53767e-05
-0.000233871
8.22904e-05
-0.000238716
8.97266e-05
-0.000244285
9.77343e-05
-0.000250743
0.00010636
-0.000258213
0.000115659
-0.000266642
0.000125698
-0.00027586
-0.000286483
0.000136558
4.11337e-06
-0.000202284
7.67212e-06
-0.000212283
1.14583e-05
-0.000210108
1.53076e-05
-0.000210535
1.91969e-05
-0.000211396
2.31421e-05
-0.000212477
2.71606e-05
-0.000213797
3.12709e-05
-0.000215366
3.54934e-05
-0.000217196
3.98526e-05
-0.000219304
4.43755e-05
-0.000221711
4.90918e-05
-0.000224452
5.40342e-05
-0.000227566
5.92386e-05
-0.000231106
6.47436e-05
-0.000235133
7.05866e-05
-0.000239714
7.68041e-05
-0.000244934
8.34271e-05
-0.000250908
9.04832e-05
-0.000257799
9.80076e-05
-0.000265738
0.00010603
-0.000274664
0.000114587
-0.000284416
-0.000295593
0.000123696
3.88321e-06
-0.000206167
7.22743e-06
-0.000215627
1.07991e-05
-0.00021368
1.44257e-05
-0.000214161
1.80879e-05
-0.000215058
2.17991e-05
-0.000216188
2.5574e-05
-0.000217572
2.94276e-05
-0.00021922
3.33769e-05
-0.000221145
3.74399e-05
-0.000223366
4.16363e-05
-0.000225908
4.59879e-05
-0.000228803
5.05172e-05
-0.000232095
5.52479e-05
-0.000235837
6.02053e-05
-0.000240091
6.54137e-05
-0.000244923
7.0895e-05
-0.000250415
7.66672e-05
-0.00025668
8.27388e-05
-0.000263871
8.91248e-05
-0.000272124
9.5844e-05
-0.000281383
0.000102922
-0.000291495
-0.000302977
0.000110306
3.64255e-06
-0.00020981
6.76928e-06
-0.000218754
1.0117e-05
-0.000217028
1.35103e-05
-0.000217554
1.69335e-05
-0.000218481
2.03977e-05
-0.000219652
2.39145e-05
-0.000221089
2.74953e-05
-0.000222801
3.11525e-05
-0.000224802
3.48985e-05
-0.000227112
3.87466e-05
-0.000229756
4.27093e-05
-0.000232766
4.68004e-05
-0.000236186
5.10317e-05
-0.000240068
5.54159e-05
-0.000244475
5.99641e-05
-0.000249471
6.46859e-05
-0.000255137
6.95825e-05
-0.000261577
7.46456e-05
-0.000268934
7.98806e-05
-0.000277359
8.52914e-05
-0.000286794
9.08712e-05
-0.000297075
-0.000308669
9.65635e-05
3.39732e-06
-0.000213207
6.30678e-06
-0.000221663
9.42195e-06
-0.000220143
1.25732e-05
-0.000220706
1.57477e-05
-0.000221656
1.89543e-05
-0.000222859
2.22015e-05
-0.000224336
2.54971e-05
-0.000226096
2.88486e-05
-0.000228154
3.22635e-05
-0.000230527
3.57483e-05
-0.000233241
3.93079e-05
-0.000236326
4.29462e-05
-0.000239825
4.66653e-05
-0.000243787
5.04642e-05
-0.000248274
5.43428e-05
-0.000253349
5.82963e-05
-0.00025909
6.23108e-05
-0.000265592
6.63681e-05
-0.000272991
7.04478e-05
-0.000281438
7.45532e-05
-0.0002909
7.86584e-05
-0.00030118
-0.000312654
8.26429e-05
3.15538e-06
-0.000216363
5.85004e-06
-0.000224358
8.72511e-06
-0.000223018
1.16277e-05
-0.000223608
1.45465e-05
-0.000224574
1.7488e-05
-0.000225801
2.04573e-05
-0.000227305
2.34588e-05
-0.000229098
2.6496e-05
-0.000231191
2.95711e-05
-0.000233603
3.26847e-05
-0.000236354
3.58351e-05
-0.000239476
3.90175e-05
-0.000243007
4.22218e-05
-0.000246992
4.54373e-05
-0.00025149
4.86508e-05
-0.000256563
5.18431e-05
-0.000262283
5.49879e-05
-0.000268737
5.80508e-05
-0.000276054
6.09878e-05
-0.000284375
6.37997e-05
-0.000293712
6.64402e-05
-0.00030382
-0.000315003
6.87889e-05
2.92655e-06
-0.000219289
5.40612e-06
-0.000226837
8.03482e-06
-0.000225646
1.0685e-05
-0.000226258
1.33443e-05
-0.000227234
1.6017e-05
-0.000228473
1.87045e-05
-0.000229993
2.14081e-05
-0.000231801
2.41271e-05
-0.00023391
2.68596e-05
-0.000236335
2.96008e-05
-0.000239096
3.23419e-05
-0.000242218
3.50703e-05
-0.000245736
3.777e-05
-0.000249691
4.04164e-05
-0.000254136
4.2983e-05
-0.000259129
4.54372e-05
-0.000264737
4.77395e-05
-0.000271039
4.98376e-05
-0.000278152
5.16798e-05
-0.000286217
5.32463e-05
-0.000295278
5.44701e-05
-0.000305044
-0.000315776
5.52432e-05
2.71488e-06
-0.000222004
4.97523e-06
-0.000229097
7.35373e-06
-0.000228025
9.75035e-06
-0.000228655
1.21503e-05
-0.000229634
1.4555e-05
-0.000230878
1.69625e-05
-0.0002324
1.93702e-05
-0.000234209
2.17741e-05
-0.000236314
2.41679e-05
-0.000238729
2.6542e-05
-0.00024147
2.88832e-05
-0.000244559
3.1172e-05
-0.000248025
3.33835e-05
-0.000251903
3.54845e-05
-0.000256237
3.74355e-05
-0.00026108
3.91875e-05
-0.000266489
4.06892e-05
-0.000272541
4.18687e-05
-0.000279331
4.26551e-05
-0.000287004
4.29986e-05
-0.000295622
4.28957e-05
-0.000304941
-0.000315035
4.21554e-05
2.51981e-06
-0.000224524
4.55086e-06
-0.000231128
6.67818e-06
-0.000230152
8.82284e-06
-0.000230799
1.09669e-05
-0.000231777
1.31089e-05
-0.00023302
1.52436e-05
-0.000234535
1.73649e-05
-0.00023633
1.94653e-05
-0.000238414
2.15342e-05
-0.000240798
2.3558e-05
-0.000243494
2.55184e-05
-0.000246519
2.73908e-05
-0.000249897
2.91425e-05
-0.000253655
3.07332e-05
-0.000257828
3.21102e-05
-0.000262457
3.32136e-05
-0.000267592
3.39716e-05
-0.000273299
3.42994e-05
-0.000279659
3.40953e-05
-0.0002868
3.32909e-05
-0.000294817
3.18573e-05
-0.000303508
-0.000312807
2.96291e-05
2.33331e-06
-0.000226857
4.12257e-06
-0.000232917
6.00057e-06
-0.00023203
7.89656e-06
-0.000232695
9.79024e-06
-0.000233671
1.1678e-05
-0.000234908
1.35519e-05
-0.000236409
1.54027e-05
-0.000238181
1.72195e-05
-0.000240231
1.8988e-05
-0.000242566
2.06905e-05
-0.000245196
2.23037e-05
-0.000248133
2.37979e-05
-0.000251391
2.51348e-05
-0.000254992
2.62659e-05
-0.000258959
2.71298e-05
-0.000263322
2.76556e-05
-0.000268118
2.77579e-05
-0.000273401
2.7315e-05
-0.000279216
2.62113e-05
-0.000285696
2.43384e-05
-0.000292944
2.16396e-05
-0.000300808
-0.000309136
1.79692e-05
2.14547e-06
-0.000229002
3.68069e-06
-0.000234453
5.313e-06
-0.000233662
6.96486e-06
-0.000234347
8.615e-06
-0.000235321
1.02582e-05
-0.000236551
1.18849e-05
-0.000238035
1.3484e-05
-0.00023978
1.50423e-05
-0.000241789
1.65424e-05
-0.000244067
1.79627e-05
-0.000246617
1.92759e-05
-0.000249446
2.04474e-05
-0.000252563
2.14334e-05
-0.000255978
2.2179e-05
-0.000259705
2.26165e-05
-0.000263759
2.2663e-05
-0.000268165
2.22048e-05
-0.000272943
2.11287e-05
-0.00027814
1.92667e-05
-0.000283834
1.64603e-05
-0.000290138
1.26074e-05
-0.000296956
-0.000304037
7.5076e-06
1.9512e-06
-0.000230953
3.21864e-06
-0.00023572
4.60887e-06
-0.000235052
6.02118e-06
-0.000235759
7.43388e-06
-0.000236734
8.84066e-06
-0.000237957
1.02323e-05
-0.000239427
1.15975e-05
-0.000241145
1.29214e-05
-0.000243113
1.4186e-05
-0.000245331
1.53674e-05
-0.000247798
1.6436e-05
-0.000250515
1.7354e-05
-0.000253481
1.80735e-05
-0.000256697
1.85341e-05
-0.000260165
1.8661e-05
-0.000263886
1.83582e-05
-0.000267862
1.7513e-05
-0.000272097
1.59772e-05
-0.000276604
1.35621e-05
-0.000281419
1.00467e-05
-0.000286622
5.26476e-06
-0.000292173
-0.000297759
-1.0126e-06
1.74968e-06
-0.000232703
2.72838e-06
-0.000236699
3.87748e-06
-0.000236201
5.05081e-06
-0.000236933
6.22753e-06
-0.00023791
7.40117e-06
-0.000239131
8.56392e-06
-0.00024059
9.70556e-06
-0.000242287
1.08123e-05
-0.00024422
1.18669e-05
-0.000246386
1.2847e-05
-0.000248778
1.37235e-05
-0.000251391