/*--------------------------------*- C++ -*----------------------------------*\
  =========                 |
  \\      /  F ield         | OpenFOAM: The Open Source CFD Toolbox
   \\    /   O peration     | Website:  https://openfoam.org
    \\  /    A nd           | Version:  13
     \\/     M anipulation  |
\*---------------------------------------------------------------------------*/
FoamFile
{
    format      ascii;
    class       volScalarField;
    location    "0.3";
    object      rho;
}
// * * * * * * * * * * * * * * * * * * * * * * * * * * * * * * * * * * * * * //

dimensions      [1 -3 0 0 0 0 0];

internalField   nonuniform List<scalar> 
2268
(
1000
1000
1000
1000
1000
1000
1000
1000
1000
1000
1000
1000
1000
1000
1000
1000
1000
1000
1000
1000
891.059
821.728
821.448
1000
1000
1000
1000
1000
1000
1000
1000
1000
1000
1000
1000
1000
1000
1000
1000
1000
1000
1000
1000
980.923
923.416
970.661
1000
1000
1000
1000
1000
1000
1000
1000
1000
1000
1000
1000
1000
1000
1000
1000
1000
1000
1000
1000
1000
999.848
999.536
1000
1000
1000
1000
1000
1000
1000
1000
1000
1000
1000
1000
1000
1000
1000
1000
1000
1000
1000
1000
1000
999.933
990.783
1000
1000
1000
1000
1000
1000
1000
1000
1000
1000
1000
1000
1000
1000
1000
1000
1000
1000
1000
1000
1000
999.998
990.752
1000
1000
1000
1000
1000
1000
1000
1000
1000
1000
1000
1000
1000
1000
1000
1000
1000
1000
1000
1000
1000
1000
990.908
1000
1000
1000
1000
1000
1000
1000
1000
1000
1000
1000
1000
1000
1000
1000
1000
1000
1000
1000
1000
1000
1000
991.196
1000
1000
1000
1000
1000
1000
1000
1000
1000
1000
1000
1000
1000
1000
1000
1000
1000
1000
1000
1000
1000
1000
991.389
1
1
1
1
1
1
1
1
1
1
1
1
1
1
1
1
1
1
1
1.00002
1.00006
1.00001
1
1
1
1
1
1
1
1
1
1
1
1
1
1
1
1
1.0006
1.00125
1.00012
1
1
1
1
1
1
1
1
1
1
1
1
1
1
1
1
1.00852
1.01514
1.00141
1
1
1
1
1
1
1
1
1
1
1
1
1
1
1
1
1.07533
1.11322
1.01217
1.00002
1
1
1
1
1
1
1
1
1
1
1
1
1
1
1
1.64131
1.65097
1.0656
1.00007
1
1
1
1
1
1
1
1
1
1
1
1
1
1
1
2.61394
2.73943
1.07394
1.00007
1.00001
1
1
1
1
1
1
1
1
1
1
1
1
1
1
2.68119
2.07355
1.00116
1.00044
1.00035
1.00002
1.00007
1.00001
1
1
1
1
1
1
1
1
1
1
1
1000
1000
1000
1000
1000
1000
1000
1000
1000
1000
1000
1000
1000
1000
1000
1000
1000
1000
1000
1000
1000
1000
991.677
1000
1000
999.999
999.999
1000
1000
1000
1000
999.999
999.999
999.999
999.999
999.997
999.998
999.999
999.995
999.985
1000
1000
1000
1000
1000
995.584
1000
999.999
999.99
999.991
999.993
999.993
999.993
999.992
999.987
999.981
999.972
999.965
999.961
999.854
999.932
999.952
999.761
999.54
1000
1000
1000
1000
1000
999.999
999.963
999.855
999.867
999.881
999.876
999.855
999.808
999.725
999.492
999.311
999.092
992.825
971.582
934.523
886.122
845.107
804.379
826.502
897.786
999.999
1000
999.838
999.963
998.907
998.144
998.241
998.253
997.616
990.941
970.5
929.255
861.902
766.324
625.947
471.37
333.33
221.827
138.052
89.1066
59.4167
72.0766
113.065
202.841
375.115
588.461
990.495
803.87
712.984
704.853
665.982
584.526
469.052
348.685
232.898
130.92
39.1506
1.00001
1.00001
1.00007
1.00323
1.01164
1.01714
1.01841
1.08801
1.90992
1.45824
1.88042
18.6177
446.982
121.259
47.5324
42.6615
21.2032
1
1
1
1
1
1.00001
1.00001
1.00001
1.00001
1.00007
1.00323
1.01712
1.02462
1.02706
1.0522
1.09588
1.14978
1.25292
1
1
1
1
1
1
1
1
1
1
1
1.00001
1.00001
1.00004
1.00083
1.09217
1.33091
1.23934
1.04615
1.06371
1.06865
1.07143
1.07732
1
1
1
1
1
1
1
1
1
1
1.00004
1.00001
1.00001
1.00042
1.46513
2.11858
1.50535
1.07075
1.06348
1.06699
1.06702
1.06769
1.0707
1
1
1
1
1
1
1
1
1
1
1.00093
1.00044
1.00002
1.01771
2.11858
2.11858
1.36947
1.14133
1.07218
1.06699
1.17524
2.09491
2.92942
1
1
1
1
1
1
1
1
1
1.00001
1.00109
1.00092
1.00003
1.02941
1.9406
2.11858
2.10682
2.44569
2.44554
2.45436
2.48933
2.47642
1.9837
1
1
1
1
1
1
1
1
1
1
1.00108
1.00048
1.00002
1.01397
1.05726
1.76371
1.87197
1.81762
2.00354
1.65282
1.0936
1.00503
1
1
1
1
1
1
1
1
1
1
1.00001
1.00011
1.00001
1.00003
1
1
1
1.07827
1
1
1
1
1
1
1
1
1
1
1
1
1
1
1
1.00001
1.00001
1.00001
1.00001
1
1
1
1
1
1
1
1
1
1
1
1
1
1
1
1
1
1
1
1
1.00001
1.00001
1
1
1
1
1
1
1
1
1
1
1
1
1
1
1
1
1
1
1
1
1
1.00001
1.00001
1
1
1
1
1
1
1
1
1
1
1
1
1
1
1
1
1
1
1
1
1
1
1
1
1
1
1
1
1
1
1
1
1
1
1
1
1
1
1
1
1
1
1
1
1
1
1
1
1
1
1
1
1
1
1
1
1
1
1
1
1
1
1
1
1
1
1
1
1
1
1
1
1
1
1
1
1
1
1
1
1
1
1
1
1
1
1
1
1
1
1
1
1
1
1
1
1
1
1
1
1
1
1
1
1
1
1
1
1
1
1
1
1
1
1
1
1
1
1
1
1
1
1
1
1
1
1
1
1
1
1
1
1
1
1
1
1
1
1
1
1
1
1
1
1
1
1
1
1
1
1
1
1
1
1
1
1
1
1
1
1
1
1
1
1
1
1
1
1
1
1
1
1
1
1
1
1
1
1
1
1
1
1
1
1
1
1
1
1
1
1
1
1
1
1
1
1
1
1
1
1
1
1
1
1
1
1
1
1
1
1
1
1
1
1
1
1
1
1
1
1
1
1
1
1
1
1
1
1
1
1
1
1
1
1
1
1
1
1
1
1
1
1
1
1
1
1
1
1
1
1
1
1
1
1
1
1
1
1
1
1
1
1
1
1
1
1
1
1
1
1
1
1
1
1
1
1
1
1
1
1
1
1
1
1
1
1
1
1
1
1
1
1
1
1
1
1
1
1
1
1
1
1
1
1
1
1
1
1
1
1
1
1
1
1
1
1
1
1
1
1
1
1
1
1
1
1
1
1
1
1
1
1
1
1
1
1
1
1
1
1
1
1
1
1
1
1
1
1
1
1
1
1
1
1
1
1
1
1
1
1
1
1
1
1
1
1
1
1
1
1
1
1
1
1
1
1
1
1
1
1
1
1
1
1
1
1
1
1
1
1
1
1
1
1
1
1
1
1
1
1
1
1
1
1
1
1
1
1
1
1
1
1
1
1
1
1
1
1
1
1
1
1
1
1
1
1
1
1
1
1
1
1
1
1
1
1
1
1
1
1
1
1
1
1
1
1
1
1
1
1
1
1
1
1
1
1
1
1
1
1
1
1
1
1
1
1
1
1
1
1
1
1
1
1
1
1
1
1
1
1
1
1
1
1
1
1
1
1
1
1
1
1
1
1
1
1
1
1
1
1
1
1
1
1
1
1
1
1
1
1
1
1
1
1
1
1
1
1
1
1
1
1
1
1
1
1
1
1
1
1
1
1
1
1
1
1
1
1
1
1
1
1
1
1
1
1
1
1
1
1
1
1
1
1
1
1
1
1
1
1
1
1
1
1
1
1
1
1
1
1
1
1
1
1
1
1
1
1
1
1
1
1
1
1
1
1
1
1
1
1
1
1
1
1
1
1
1
1
1
1
1
1
1
1
1
1
1
1
994.551
998.608
992.085
185.121
995.415
999.452
999.405
948.063
999.73
999.594
999.458
999.394
999.594
999.515
999.514
999.508
768.925
954.437
999.496
999.387
50.6553
98.2924
163.344
250.809
1.45613
2.07084
4.35212
2.17943
1.13213
1.32352
1.5941
1.8871
1.08199
1.41121
3.2089
3.29251
2.99557
3.00578
3.06085
2.73352
1.20771
1.03025
1.00957
1.00001
1
1
1
1
1
1
1
1
1
1
1
1
1
1
1
1
1
1
1
1
1
1
1
1
1
1
1
1
1
1
1
1
1
1
1
1
1
1
1
1
1
1
1
1
1
1
1
1
1
1
1
1
1
1
1
1
1
1
1
1
1
1
1
1
1
1
1
1
1
1
1
1
1
1
1
1
1
1
1
1
1
1
1
1
1
1
1
1
1
1
1
1
1
1
1
1
1
1
1
1
1
1
1
1
1
1
1
1
1
1
1
1
1
1
1
1
1
1
1
1
1
1
1
1
141.987
1.58274
1.01387
1.00116
1.00082
1.0015
1.00116
1.00023
1.00007
1
1
1
1
1
1
1
1
1
1
938.056
265.932
72.207
1.02989
1.04533
1.02073
1.00755
1.00276
1.00234
1.00017
1
1
1
1
1
1
1
1
1
999.151
968.291
914.306
367.265
55.2559
5.54608
1.22628
1.0903
1.03289
1.00156
1.00008
1
1
1
1
1
1
1
1
999.375
999.131
998.351
986.919
949.83
501.008
75.6087
2.74725
1.31602
1.02744
1.00216
1.00013
1.00001
1
1
1
1
1
1
999.131
998.488
998.02
997.848
997.035
995.214
892.155
319.76
13.5219
1.4127
1.04094
1.00318
1.00025
1.00004
1
1
1
1
1
386.421
658.744
975.148
997.033
995.214
992.868
991.567
958.714
481.412
31.0233
1.60848
1.05797
1.00447
1.00071
1.00009
1.00001
1
1
1
2.68449
29.6022
110.673
205.444
472.401
924.187
988.889
977.381
956.287
528.593
36.0814
1.83437
1.07351
1.01014
1.00149
1.00016
1.00001
1
1
2.41638
2.43951
1.87019
1.42582
4.8795
33.631
289.201
902.207
942.791
892.099
439.612
18.2373
1.96213
1.11848
1.0181
1.00239
1.00022
1.00001
1
3.29119
2.99457
1.26968
1.02153
1.02204
1.02834
1.08901
155.207
788.177
875.529
777.56
251.499
8.35656
2.15099
1.18539
1.02678
1.00254
1.00013
1.00001
1.31675
1.11758
1.03259
1.00109
1.00154
1.00224
1.00448
1.05388
237.838
801.04
799.452
539.508
72.4383
4.7112
1.67623
1.10621
1.01151
1.00067
1.00007
1
1.00001
1.00002
1.00003
1.00008
1.00018
1.00033
1.00152
1.05353
502.44
765.353
683.06
202.157
9.23885
2.59202
1.27541
1.03365
1.0021
1.00044
1
1
1
1
1.00001
1.00003
1.00006
1.00014
1.0188
165.315
680.719
655.402
353.574
25.8225
3.59119
1.48424
1.06327
1.00498
1.00159
1
1
1
1
1.00001
1.00003
1.00004
1.0001
1.00022
17.6708
530.368
625.756
445.521
49.8202
4.61507
1.70247
1.12041
1.01643
1.0038
1
1
1
1.00003
1.00096
1.0008
1.00016
1.00013
1.0002
1.00087
355.852
601.255
477.629
86.3495
5.46122
1.91466
1.17341
1.02371
1.00681
1
1
1
1.00078
1.0119
1.01349
1.00591
1.0002
1.00067
1.00104
244.424
555.887
465.388
98.7491
5.75841
2.05939
1.16341
1.01995
1.00796
1
1
1
1.00655
1.01349
1.01349
1.01349
1.00345
1.001
1.00147
189.75
515.124
436.98
93.6685
5.50836
1.80885
1.11997
1.01815
1.00546
1
1
1
1.00131
1.01336
1.01349
1.01336
1.00489
1.00146
1.00432
196.075
475.108
387.8
71.4444
4.53191
1.6418
1.17003
1.02111
1.00339
1
1
1
1.00001
1.01156
1.01336
1.00949
1.0028
1.0023
1.0028
225.282
442.358
299.607
33.4451
3.6486
1.76749
1.17726
1.02153
1.00212
1
1
1.00003
1.00008
1.00785
1.01298
1.00499
1.00301
1.0028
5.23336
239.555
420.254
167.738
9.38994
3.47883
1.84326
1.17424
1.01884
1.00132
1
1
1.00035
1.00037
1.00425
1.00466
1.00359
1.00309
1.003
34.0236
281.735
283.308
65.7667
5.9414
3.2619
1.71182
1.12995
1.01336
1.00087
1
1
1.00273
1.00266
1.00272
1.00289
1.00354
1.0033
3.57346
179.415
278.815
191.367
17.5175
4.03036
2.49507
1.48824
1.0813
1.00795
1.00051
1
1
1.00174
1.00432
1.0045
1.00411
1.00382
1.00357
91.4377
267.352
278.815
114.347
5.98642
2.59132
1.76857
1.27538
1.03944
1.00391
1.00026
1.00001
1
1.00058
1.00162
1.00345
1.00618
2.38891
68.7521
234.842
245.366
224.725
46.7759
3.97973
1.96838
1.42748
1.11768
1.01705
1.00182
1.00013
1.00002
1.00005
1.00018
1.00264
1.00235
1.00461
46.6485
220.853
227.978
234.842
104.773
11.1478
3.54582
1.76831
1.2091
1.0423
1.00765
1.00086
1.00006
1
1.00012
1.00011
1.02314
1.0042
1.00687
131.754
208.922
221.114
127.118
15.2191
4.76926
3.18027
1.59324
1.05958
1.01614
1.00344
1.0004
1.00003
1.00001
1.00008
1.00026
1.02436
1.00908
1.01132
137.948
196.325
96.6542
14.4421
4.74766
2.41596
1.83049
1.25575
1.02423
1.00541
1.00154
1.00019
1.00001
1.00002
1.00009
1.00012
1.02304
1.00866
18.7502
139.83
77.8029
10.3817
3.64004
2.2455
1.60484
1.15368
1.04209
1.01305
1.00244
1.00069
1.0001
1.00001
1.00002
1.00016
1.0009
1.00128
1.00278
2.26413
136.487
76.654
3.59416
2.15075
1.44508
1.21182
1.0691
1.01909
1.00545
1.00135
1.00033
1.00005
1
1.00003
1.00012
1.0023
1.00262
1.13787
1.10667
99.0442
105.415
7.09421
1.58046
1.20626
1.08095
1.02718
1.00884
1.00279
1.00081
1.00017
1.00003
1
1.00003
1.0002
1.0016
1.0146
1.15369
1.09436
72.7898
106.096
37.2191
1.43797
1.119
1.03695
1.01136
1.0033
1.00119
1.00048
1.0001
1.00001
1
1.00003
1.00018
1.00175
1.01329
1.08586
1.0852
68.6726
107.02
110.333
3.57791
1.1137
1.01823
1.00532
1.00143
1.00047
1.00023
1.00006
1.00001
1
1.00002
1.00015
1.00135
1.01117
1.06444
1.07867
11.783
108.59
113.408
22.7929
1.35545
1.08006
1.00327
1.00071
1.00024
1.00007
1.00003
1
1
1.00001
1.00011
1.00112
1.00912
1.04559
1.75613
1.54723
109.209
114.092
113.408
6.56954
1.34411
1.04027
1.00257
1.00019
1.00003
1.00001
1
1
1.00001
1.00008
1.0009
1.00847
1.05413
1.43107
1.37572
106.784
114.092
114.092
22.9828
1.39409
1.01377
1.00043
1.00005
1.00002
1.00001
1
1
1
1.00005
1.00062
1.00658
1.05721
1.15712
1.19754
63.6713
114.092
113.592
105.045
5.86378
1.01428
1.00039
1.00009
1.00002
1
1
1
1
1.00002
1.00031
1.00313
1.02701
1.21697
4.31912
14.3529
113.241
113.092
91.4037
4.13962
1.15791
1.00672
1.00014
1.00001
1
1
1
1
1.00001
1.00015
1.00166
1.01465
1.11676
3.21896
11.3856
66.3771
78.0557
19.3803
4.16486
1.05251
1.00375
1.00007
1
1
1
1
1
1.00001
1.00011
1.00124
1.01021
1.07059
2.54672
6.68637
7.39757
10.0668
2.34731
2.03269
1.00889
1.00009
1.00001
1
1
1
1
1
1.00001
1.0001
1.00102
1.00697
1.03118
1.57789
2.48445
2.58241
2.85582
1.6088
1.08844
1.00494
1.00008
1
1
1
1
1
1
1
1.00002
1.00018
1.00166
1.01149
1.10565
1.4335
1.5636
1.58543
1.22468
1.04025
1.0027
1.00006
1
1
1
1
1
1
1
1
1.00001
1.00013
1.00103
1.01904
1.09184
1.14645
1.1835
1.06514
1.01347
1.00136
1.00004
1
1
1
1
1
1
1
1
1
1
1.00003
1.00066
1.00597
1.04011
1.09242
1.01865
1.00142
1.00015
1.00001
1
1
1
1
1
)
;

boundaryField
{
    leftWall
    {
        type            calculated;
        value           nonuniform List<scalar> 
50
(
1000
1000
1000
1000
1000
1000
1000
1000
1000
1000
1000
999.999
999.963
990.495
446.982
1
1
1
1
1
1
1
1
1
1
1
1
1
1
1
1
1
1
1
1
1
1
1
1
1
1
1
1
1
1
1
1
1
1
1
)
;
    }
    rightWall
    {
        type            calculated;
        value           nonuniform List<scalar> 
50
(
1
1
1
1
1
1
1
1
1
1
1
1
1
1
1
1
1.00001
1.00007
1.00044
1.00159
1.0038
1.00681
1.00796
1.00546
1.00339
1.00212
1.00132
1.00087
1.00051
1.00026
1.00013
1.00006
1.00003
1.00001
1.00001
1
1
1
1
1
1
1
1
1
1
1
1
1
1
1
)
;
    }
    lowerWall
    {
        type            calculated;
        value           nonuniform List<scalar> 
62
(
1000
1000
1000
1000
1000
1000
1000
1000
1000
1000
1000
1000
1000
1000
1000
1000
1000
1000
1000
1000
891.059
821.728
821.448
821.448
970.661
999.536
990.783
990.752
990.908
991.196
991.389
994.551
998.608
992.085
185.121
1
1.00002
1.0006
1.00852
1.07533
1.64131
2.61394
2.68119
1
1
1
1
1
1
1
1
1
1
1
1
1
1
1
1
1
1
1
)
;
    }
    atmosphere
    {
        type            calculated;
        value           nonuniform List<scalar> 
46
(
1
1
1
1
1
1
1
1
1
1
1
1
1
1
1
1
1
1
1
1
1
1
1
1
1
1
1
1
1
1
1
1
1
1.00066
1.00597
1.04011
1.09242
1.01865
1.00142
1.00015
1.00001
1
1
1
1
1
)
;
    }
    defaultFaces
    {
        type            empty;
    }
}


// ************************************************************************* //
