/*--------------------------------*- C++ -*----------------------------------*\
  =========                 |
  \\      /  F ield         | OpenFOAM: The Open Source CFD Toolbox
   \\    /   O peration     | Website:  https://openfoam.org
    \\  /    A nd           | Version:  13
     \\/     M anipulation  |
\*---------------------------------------------------------------------------*/
FoamFile
{
    format      ascii;
    class       volVectorField;
    location    "0.3";
    object      U;
}
// * * * * * * * * * * * * * * * * * * * * * * * * * * * * * * * * * * * * * //

dimensions      [0 1 -1 0 0 0 0];

internalField   nonuniform List<vector> 
2268
(
(-0.0201027 0.00259516 0)
(0.00134777 -0.00976774 0)
(0.0638556 -0.0163978 0)
(0.137176 -0.0175928 0)
(0.208999 -0.0158074 0)
(0.271691 -0.0132794 0)
(0.323709 -0.0111359 0)
(0.367583 -0.00965617 0)
(0.406449 -0.00871516 0)
(0.442237 -0.00804937 0)
(0.475492 -0.00739291 0)
(0.505724 -0.00652684 0)
(0.531664 -0.00528812 0)
(0.551207 -0.00350676 0)
(0.562281 -0.000176125 0)
(0.55628 0.00629242 0)
(0.521909 0.0175658 0)
(0.44437 0.0344037 0)
(0.306474 0.0517947 0)
(0.111255 0.0552671 0)
(-0.11626 0.0127339 0)
(-0.229103 -0.0342303 0)
(-0.0746307 -0.0762209 0)
(-0.0199672 0.00743837 0)
(0.00282254 -0.0297037 0)
(0.0658793 -0.0494795 0)
(0.139317 -0.0529845 0)
(0.210772 -0.0476534 0)
(0.272998 -0.0401344 0)
(0.324822 -0.0337724 0)
(0.368871 -0.0293978 0)
(0.4082 -0.0266246 0)
(0.44463 -0.0246593 0)
(0.478628 -0.0227075 0)
(0.509657 -0.0201353 0)
(0.536491 -0.0164517 0)
(0.557502 -0.0111726 0)
(0.57008 -0.00299263 0)
(0.576772 0.00977531 0)
(0.579416 0.0302094 0)
(0.573876 0.0621821 0)
(0.537416 0.105006 0)
(0.417068 0.143826 0)
(0.193283 0.127813 0)
(-0.0966259 0.0486321 0)
(0.0367456 -0.126182 0)
(-0.0190618 0.0116709 0)
(0.00537713 -0.0498691 0)
(0.0688599 -0.0824618 0)
(0.141832 -0.0879298 0)
(0.211992 -0.0789376 0)
(0.272785 -0.0665058 0)
(0.3237 -0.0561097 0)
(0.36755 -0.0490507 0)
(0.407259 -0.0446143 0)
(0.44443 -0.0414512 0)
(0.479355 -0.0382544 0)
(0.511406 -0.0340052 0)
(0.53935 -0.0279392 0)
(0.561602 -0.0193573 0)
(0.576185 -0.00760403 0)
(0.580923 0.00822947 0)
(0.574878 0.0310107 0)
(0.561539 0.066651 0)
(0.553658 0.122661 0)
(0.535586 0.192776 0)
(0.442658 0.221983 0)
(0.205777 0.124341 0)
(0.139903 -0.0834198 0)
(-0.0178015 0.0148166 0)
(0.00921929 -0.0705689 0)
(0.0730963 -0.115429 0)
(0.145211 -0.122285 0)
(0.21349 -0.109463 0)
(0.272363 -0.0923025 0)
(0.322166 -0.0782183 0)
(0.365917 -0.0688221 0)
(0.406314 -0.0629805 0)
(0.444644 -0.0587702 0)
(0.480948 -0.0544025 0)
(0.514473 -0.0485202 0)
(0.543986 -0.0401473 0)
(0.567953 -0.0284725 0)
(0.58464 -0.0127194 0)
(0.592281 0.00846802 0)
(0.589303 0.0368368 0)
(0.574381 0.0751191 0)
(0.553827 0.128565 0)
(0.547336 0.204355 0)
(0.539224 0.269148 0)
(0.39182 0.215979 0)
(0.226514 0.0279113 0)
(-0.015993 0.0164441 0)
(0.0141606 -0.0918777 0)
(0.0782597 -0.148175 0)
(0.149028 -0.155682 0)
(0.214866 -0.138882 0)
(0.271458 -0.117328 0)
(0.320086 -0.100071 0)
(0.363914 -0.088803 0)
(0.405307 -0.0818724 0)
(0.44514 -0.0767827 0)
(0.483162 -0.0713143 0)
(0.518483 -0.0638383 0)
(0.549877 -0.0532158 0)
(0.575926 -0.0385468 0)
(0.595114 -0.0189212 0)
(0.605945 0.00686468 0)
(0.607268 0.040401 0)
(0.597975 0.0836435 0)
(0.577539 0.137213 0)
(0.55131 0.205945 0)
(0.551426 0.287008 0)
(0.46534 0.297651 0)
(0.279973 0.180355 0)
(-0.01354 0.0161981 0)
(0.0199895 -0.113953 0)
(0.0840879 -0.180558 0)
(0.153009 -0.187879 0)
(0.21592 -0.166988 0)
(0.270037 -0.141496 0)
(0.317586 -0.121723 0)
(0.36175 -0.109148 0)
(0.404438 -0.10149 0)
(0.446044 -0.0957002 0)
(0.486009 -0.0892076 0)
(0.523328 -0.0801903 0)
(0.556813 -0.0674077 0)
(0.58519 -0.049899 0)
(0.607137 -0.0267267 0)
(0.621376 0.00325705 0)
(0.626958 0.041408 0)
(0.622746 0.089428 0)
(0.609158 0.14789 0)
(0.577204 0.215286 0)
(0.553778 0.301671 0)
(0.488045 0.370237 0)
(0.306758 0.354945 0)
(-0.0106111 0.0140274 0)
(0.0264791 -0.137009 0)
(0.0904313 -0.212576 0)
(0.156994 -0.218901 0)
(0.216614 -0.193856 0)
(0.268242 -0.164898 0)
(0.314955 -0.14325 0)
(0.359779 -0.129899 0)
(0.404045 -0.12183 0)
(0.447636 -0.115476 0)
(0.48971 -0.107997 0)
(0.529197 -0.0974653 0)
(0.564993 -0.0826015 0)
(0.595967 -0.0624246 0)
(0.620933 -0.0359929 0)
(0.638701 -0.00228864 0)
(0.648491 0.0399446 0)
(0.649136 0.0921392 0)
(0.641461 0.156338 0)
(0.617004 0.230046 0)
(0.57928 0.323636 0)
(0.513332 0.433783 0)
(0.350401 0.530471 0)
(-0.00727694 0.010097 0)
(0.033371 -0.161094 0)
(0.0970402 -0.244149 0)
(0.160893 -0.248664 0)
(0.217148 -0.219533 0)
(0.266532 -0.187667 0)
(0.312793 -0.164752 0)
(0.358635 -0.151051 0)
(0.404749 -0.142777 0)
(0.450522 -0.135903 0)
(0.494897 -0.127413 0)
(0.536804 -0.115352 0)
(0.575253 -0.0984553 0)
(0.609207 -0.075718 0)
(0.63749 -0.0461554 0)
(0.658915 -0.00877395 0)
(0.672745 0.0373872 0)
(0.678309 0.0934841 0)
(0.675461 0.162119 0)
(0.661906 0.243328 0)
(0.626783 0.348241 0)
(0.571161 0.496812 0)
(0.342797 0.760298 0)
(0.108427 -0.0428486 0)
(0.259185 -0.0170778 0)
(0.280052 0.00647064 0)
(0.234128 0.00660143 0)
(0.209486 0.00305063 0)
(0.207126 0.000408801 0)
(0.213769 -0.00191346 0)
(0.227356 -0.00289829 0)
(0.242689 -0.0026506 0)
(0.255261 -0.00164435 0)
(0.26133 4.79314e-05 0)
(0.258686 0.00174227 0)
(0.247275 0.00345396 0)
(0.22711 0.00511916 0)
(0.198704 0.00666621 0)
(0.162883 0.00797329 0)
(0.120864 0.00900475 0)
(0.0743047 0.00972354 0)
(0.0249832 0.010233 0)
(0.137659 -0.129797 0)
(0.282222 -0.0411542 0)
(0.290913 0.021722 0)
(0.239321 0.0171085 0)
(0.216459 0.00684875 0)
(0.21625 -0.000862085 0)
(0.225481 -0.00761167 0)
(0.242037 -0.0104709 0)
(0.260272 -0.00959715 0)
(0.275489 -0.00656521 0)
(0.284947 -0.00186196 0)
(0.287335 0.00358127 0)
(0.280488 0.0094195 0)
(0.262874 0.0153219 0)
(0.234247 0.0209571 0)
(0.195024 0.0259178 0)
(0.146514 0.0299445 0)
(0.0908309 0.0327822 0)
(0.0305554 0.0340198 0)
(0.190314 -0.24661 0)
(0.344157 -0.0579787 0)
(0.301679 0.0434172 0)
(0.230247 0.0278064 0)
(0.210793 0.0114874 0)
(0.212382 -0.00245422 0)
(0.222642 -0.0140367 0)
(0.241016 -0.0186074 0)
(0.260664 -0.0170716 0)
(0.276739 -0.0120326 0)
(0.286296 -0.00458053 0)
(0.28772 0.00456746 0)
(0.279886 0.0147061 0)
(0.261726 0.0252022 0)
(0.232971 0.0354099 0)
(0.193921 0.0445975 0)
(0.145735 0.052166 0)
(0.090381 0.0575435 0)
(0.03038 0.0599321 0)
(0.184477 -0.379131 0)
(0.408578 -0.0634438 0)
(0.311522 0.0745454 0)
(0.214655 0.042504 0)
(0.201606 0.0184193 0)
(0.205455 -0.00487704 0)
(0.218213 -0.0215914 0)
(0.23985 -0.027489 0)
(0.261897 -0.0251201 0)
(0.279488 -0.0177176 0)
(0.289997 -0.00698295 0)
(0.291713 0.00598194 0)
(0.28363 0.0203617 0)
(0.26491 0.0353607 0)
(0.235436 0.0500369 0)
(0.195662 0.063372 0)
(0.146845 0.0744339 0)
(0.0909799 0.0823429 0)
(0.0305722 0.0859001 0)
(0.100682 -0.514104 0)
(0.408674 -0.0487298 0)
(0.293799 0.099294 0)
(0.186956 0.0568716 0)
(0.187259 0.0265292 0)
(0.194663 -0.00991113 0)
(0.212307 -0.0309261 0)
(0.238578 -0.0375882 0)
(0.263854 -0.0341593 0)
(0.283571 -0.024078 0)
(0.295512 -0.00982509 0)
(0.298127 0.00720904 0)
(0.290457 0.0260472 0)
(0.27168 0.0457211 0)
(0.241661 0.0649667 0)
(0.200916 0.0824913 0)
(0.150804 0.0970392 0)
(0.0934279 0.107464 0)
(0.0314061 0.112161 0)
(0.0130937 -0.66483 0)
(0.304642 0.0151587 0)
(0.20389 0.131367 0)
(0.145955 0.0772001 0)
(0.167364 0.0341329 0)
(0.177814 -0.0195575 0)
(0.204485 -0.0424392 0)
(0.237021 -0.0493537 0)
(0.266425 -0.0445096 0)
(0.288877 -0.0312803 0)
(0.302609 -0.0132122 0)
(0.306395 0.00809389 0)
(0.299379 0.0315982 0)
(0.280718 0.0561762 0)
(0.25019 0.080232 0)
(0.20832 0.102153 0)
(0.156525 0.12034 0)
(0.0970332 0.133384 0)
(0.0326405 0.139277 0)
(-0.0485171 -0.796999 0)
(0.158286 -0.137413 0)
(-0.0976737 0.0431435 0)
(0.0670842 0.082531 0)
(0.140815 0.038807 0)
(0.157958 -0.0387399 0)
(0.196785 -0.0580723 0)
(0.235627 -0.0637401 0)
(0.269794 -0.056535 0)
(0.2955 -0.0395159 0)
(0.311318 -0.0172692 0)
(0.316529 0.00855505 0)
(0.310323 0.036964 0)
(0.291826 0.0667084 0)
(0.260716 0.0958968 0)
(0.217508 0.122511 0)
(0.163657 0.1446 0)
(0.101545 0.160455 0)
(0.0341865 0.167637 0)
(-0.103862 -0.795465 0)
(0.00329458 0.290947 0)
(-0.577607 0.175972 0)
(0.000990378 -0.0319494 0)
(0.116289 0.0103956 0)
(0.141872 -0.0586539 0)
(0.19526 -0.072508 0)
(0.237289 -0.0807619 0)
(0.275109 -0.0701963 0)
(0.304009 -0.0487193 0)
(0.321907 -0.0221072 0)
(0.328635 0.00848894 0)
(0.323354 0.0421135 0)
(0.305064 0.0772745 0)
(0.273271 0.111874 0)
(0.228458 0.143464 0)
(0.172158 0.16968 0)
(0.106923 0.188512 0)
(0.0360251 0.197076 0)
(-0.00190208 -0.00157921 0)
(0.0441775 -0.201059 0)
(0.107191 -0.291715 0)
(0.166607 -0.291518 0)
(0.218119 -0.256722 0)
(0.264999 -0.222254 0)
(0.311488 -0.19914 0)
(0.359469 -0.185993 0)
(0.408618 -0.177932 0)
(0.457705 -0.170508 0)
(0.505501 -0.160698 0)
(0.551053 -0.146652 0)
(0.593549 -0.127142 0)
(0.632083 -0.101016 0)
(0.665624 -0.0671442 0)
(0.693274 -0.0245697 0)
(0.714367 0.0280369 0)
(0.728947 0.0913197 0)
(0.73545 0.168043 0)
(0.739639 0.258932 0)
(0.730223 0.377203 0)
(0.778374 0.522081 0)
(0.78214 0.880682 0)
(0.00573229 -0.025842 0)
(0.0592321 -0.258057 0)
(0.120596 -0.353453 0)
(0.173604 -0.344852 0)
(0.219279 -0.303853 0)
(0.263967 -0.268747 0)
(0.311669 -0.247821 0)
(0.362597 -0.23687 0)
(0.415057 -0.229773 0)
(0.46726 -0.221933 0)
(0.517995 -0.210641 0)
(0.566566 -0.194247 0)
(0.612513 -0.171528 0)
(0.655448 -0.14118 0)
(0.694956 -0.102099 0)
(0.731322 -0.0542484 0)
(0.764773 0.0012566 0)
(0.795452 0.0651832 0)
(0.82127 0.142518 0)
(0.848176 0.231174 0)
(0.873476 0.337403 0)
(0.939335 0.447914 0)
(1.03503 0.629448 0)
(0.014674 -0.0626345 0)
(0.0752988 -0.319262 0)
(0.1317 -0.409973 0)
(0.176259 -0.391149 0)
(0.216683 -0.347286 0)
(0.260317 -0.315502 0)
(0.309095 -0.298897 0)
(0.361083 -0.29037 0)
(0.41379 -0.283387 0)
(0.465662 -0.273922 0)
(0.516077 -0.259961 0)
(0.564811 -0.239817 0)
(0.61242 -0.21279 0)
(0.6596 -0.178281 0)
(0.706389 -0.135457 0)
(0.752193 -0.0830746 0)
(0.796517 -0.0193956 0)
(0.842098 0.0614231 0)
(0.883067 0.15097 0)
(0.919245 0.242803 0)
(0.960371 0.330036 0)
(1.01577 0.405578 0)
(1.10124 0.465557 0)
(0.0252928 -0.113025 0)
(0.0961677 -0.381133 0)
(0.141948 -0.456064 0)
(0.173258 -0.428388 0)
(0.208531 -0.386825 0)
(0.252076 -0.361103 0)
(0.301815 -0.348527 0)
(0.354299 -0.340987 0)
(0.40784 -0.333248 0)
(0.462262 -0.322718 0)
(0.518721 -0.308696 0)
(0.577872 -0.289745 0)
(0.640495 -0.267911 0)
(0.707878 -0.242225 0)
(0.782278 -0.211768 0)
(0.862696 -0.174729 0)
(0.942795 -0.126369 0)
(1.0024 -0.0604004 0)
(1.0325 0.016843 0)
(1.04289 0.102124 0)
(1.05486 0.191495 0)
(1.07837 0.282541 0)
(1.13211 0.353541 0)
(0.0396932 -0.1876 0)
(0.134306 -0.437299 0)
(0.162513 -0.483782 0)
(0.17241 -0.455737 0)
(0.203899 -0.426483 0)
(0.252547 -0.410918 0)
(0.309552 -0.404127 0)
(0.370532 -0.400893 0)
(0.435758 -0.398516 0)
(0.507813 -0.395784 0)
(0.592773 -0.393478 0)
(0.687186 -0.390135 0)
(0.786217 -0.382123 0)
(0.898499 -0.367144 0)
(1.02939 -0.339673 0)
(1.17211 -0.287083 0)
(1.30548 -0.197701 0)
(1.38553 -0.0525819 0)
(1.36401 0.0902949 0)
(1.29274 0.190196 0)
(1.22346 0.249835 0)
(1.17925 0.292446 0)
(1.1751 0.323811 0)
(0.0676927 -0.290742 0)
(0.194598 -0.502129 0)
(0.204392 -0.498197 0)
(0.190187 -0.479968 0)
(0.224262 -0.477044 0)
(0.2869 -0.47859 0)
(0.357912 -0.480659 0)
(0.43415 -0.484554 0)
(0.520283 -0.491253 0)
(0.625447 -0.502393 0)
(0.758535 -0.52191 0)
(0.872354 -0.510484 0)
(1.00328 -0.48805 0)
(1.14087 -0.460419 0)
(1.28708 -0.423802 0)
(1.42896 -0.346987 0)
(1.53051 -0.223995 0)
(1.58953 0.00114713 0)
(1.5707 0.192721 0)
(1.52394 0.309381 0)
(1.45505 0.361028 0)
(1.36427 0.372032 0)
(1.27073 0.353967 0)
(0.0833793 -0.427422 0)
(0.231484 -0.615902 0)
(0.259663 -0.489461 0)
(0.241805 -0.485886 0)
(0.283608 -0.532234 0)
(0.350083 -0.56158 0)
(0.400118 -0.557925 0)
(0.461812 -0.555196 0)
(0.519428 -0.561473 0)
(0.58586 -0.582191 0)
(0.672572 -0.592272 0)
(0.798588 -0.529839 0)
(0.947521 -0.548251 0)
(1.09968 -0.578525 0)
(1.26366 -0.589046 0)
(1.42433 -0.518028 0)
(1.54845 -0.353217 0)
(1.6219 -0.116688 0)
(1.65328 0.147083 0)
(1.64075 0.343356 0)
(1.59231 0.443574 0)
(1.53248 0.491416 0)
(1.45772 0.469663 0)
(-9.89817e-05 -0.663453 0)
(0.0647824 -0.660622 0)
(0.175385 -0.491712 0)
(0.212835 -0.487424 0)
(0.234574 -0.549185 0)
(0.261583 -0.556165 0)
(0.298975 -0.552081 0)
(0.347231 -0.564983 0)
(0.408914 -0.600539 0)
(0.49132 -0.660407 0)
(0.597019 -0.719638 0)
(0.718997 -0.754654 0)
(0.852221 -0.784349 0)
(0.982451 -0.809969 0)
(1.12615 -0.811681 0)
(1.27761 -0.709258 0)
(1.40232 -0.491487 0)
(1.47066 -0.191819 0)
(1.48609 0.118914 0)
(1.44863 0.353721 0)
(1.39832 0.477231 0)
(1.39689 0.512532 0)
(1.4593 0.480232 0)
(-0.0387171 -0.568081 0)
(-0.0392504 -0.547088 0)
(0.0336984 -0.587084 0)
(0.117154 -0.579828 0)
(0.175402 -0.59375 0)
(0.215608 -0.609683 0)
(0.251746 -0.625302 0)
(0.29703 -0.653588 0)
(0.354636 -0.707789 0)
(0.42411 -0.782055 0)
(0.504846 -0.848531 0)
(0.590179 -0.878963 0)
(0.685416 -0.884018 0)
(0.754962 -0.906042 0)
(0.816538 -0.942772 0)
(0.909577 -0.816898 0)
(0.974307 -0.538897 0)
(1.0141 -0.201072 0)
(1.04229 0.14083 0)
(1.05472 0.394855 0)
(1.11789 0.477676 0)
(1.26421 0.419986 0)
(1.44365 0.327889 0)
(-0.0256564 -0.545141 0)
(0.0101677 -0.73207 0)
(0.0639059 -0.684369 0)
(0.110941 -0.647812 0)
(0.156601 -0.644102 0)
(0.19807 -0.654909 0)
(0.2343 -0.670481 0)
(0.272266 -0.699608 0)
(0.311003 -0.755493 0)
(0.348319 -0.830836 0)
(0.385485 -0.899532 0)
(0.419028 -0.932703 0)
(0.462394 -0.927037 0)
(0.470329 -0.943113 0)
(0.422975 -0.958604 0)
(0.427574 -0.788916 0)
(0.431929 -0.49421 0)
(0.458472 -0.145603 0)
(0.551953 0.137757 0)
(0.728543 0.287284 0)
(0.957426 0.281532 0)
(1.19249 0.177275 0)
(1.3785 0.0871524 0)
(0.0150768 -0.561659 0)
(0.046987 -0.755614 0)
(0.0741513 -0.712644 0)
(0.110182 -0.683389 0)
(0.148622 -0.682624 0)
(0.185578 -0.690384 0)
(0.218375 -0.701691 0)
(0.247804 -0.727294 0)
(0.268759 -0.7791 0)
(0.279055 -0.849517 0)
(0.279856 -0.913925 0)
(0.269874 -0.941392 0)
(0.26916 -0.915281 0)
(0.239665 -0.899559 0)
(0.144322 -0.898069 0)
(0.150462 -0.758582 0)
(0.196227 -0.540992 0)
(0.318922 -0.31171 0)
(0.493507 -0.152445 0)
(0.705219 -0.0579027 0)
(0.913406 -0.0280178 0)
(1.07112 -0.0284252 0)
(1.18623 -0.0124339 0)
(0.0296361 -0.597745 0)
(0.0558045 -0.781772 0)
(0.0746818 -0.738217 0)
(0.107993 -0.718133 0)
(0.143557 -0.71868 0)
(0.177029 -0.723359 0)
(0.207999 -0.729878 0)
(0.233781 -0.747504 0)
(0.247571 -0.786798 0)
(0.246219 -0.842818 0)
(0.229295 -0.894224 0)
(0.20078 -0.913626 0)
(0.183083 -0.885112 0)
(0.161471 -0.855292 0)
(0.111905 -0.857895 0)
(0.0938081 -0.795423 0)
(0.159605 -0.642606 0)
(0.25779 -0.469406 0)
(0.400538 -0.313591 0)
(0.548581 -0.180222 0)
(0.696338 -0.0841228 0)
(0.823329 -0.0683772 0)
(0.930735 -0.0856306 0)
(0.0295862 -0.642446 0)
(0.056798 -0.806931 0)
(0.0761107 -0.765149 0)
(0.107887 -0.751041 0)
(0.140912 -0.75205 0)
(0.172616 -0.754676 0)
(0.203592 -0.7571 0)
(0.23088 -0.76613 0)
(0.248109 -0.791343 0)
(0.250333 -0.831209 0)
(0.23683 -0.870076 0)
(0.215584 -0.888452 0)
(0.20284 -0.875204 0)
(0.203258 -0.85041 0)
(0.20036 -0.839898 0)
(0.171713 -0.815399 0)
(0.172093 -0.712105 0)
(0.224991 -0.552848 0)
(0.319938 -0.414614 0)
(0.446672 -0.314567 0)
(0.596941 -0.261695 0)
(0.756152 -0.249738 0)
(0.905556 -0.250846 0)
(0.0269658 -0.685982 0)
(0.0555372 -0.828652 0)
(0.0764337 -0.791815 0)
(0.107143 -0.782206 0)
(0.138671 -0.783677 0)
(0.169712 -0.785807 0)
(0.201225 -0.786934 0)
(0.232032 -0.790985 0)
(0.257088 -0.805377 0)
(0.270662 -0.831446 0)
(0.271981 -0.860306 0)
(0.266956 -0.878499 0)
(0.264286 -0.877331 0)
(0.271393 -0.861567 0)
(0.278904 -0.835894 0)
(0.282716 -0.795998 0)
(0.290535 -0.728679 0)
(0.336315 -0.63023 0)
(0.425195 -0.546049 0)
(0.540488 -0.480435 0)
(0.670292 -0.430978 0)
(0.805069 -0.400026 0)
(0.935351 -0.384854 0)
(0.0239075 -0.727521 0)
(0.0530636 -0.851679 0)
(0.0759192 -0.819265 0)
(0.105783 -0.812624 0)
(0.136384 -0.814635 0)
(0.166883 -0.817136 0)
(0.198224 -0.819015 0)
(0.230685 -0.821782 0)
(0.261186 -0.830036 0)
(0.284851 -0.846527 0)
(0.299777 -0.866994 0)
(0.308145 -0.881869 0)
(0.314344 -0.88416 0)
(0.322956 -0.872535 0)
(0.336409 -0.848101 0)
(0.355652 -0.812777 0)
(0.385104 -0.761773 0)
(0.433699 -0.700573 0)
(0.506817 -0.636813 0)
(0.600631 -0.581764 0)
(0.708545 -0.541771 0)
(0.824431 -0.516735 0)
(0.942789 -0.503847 0)
(0.0212414 -0.766086 0)
(0.050393 -0.875819 0)
(0.0747919 -0.847106 0)
(0.104031 -0.842473 0)
(0.133863 -0.844858 0)
(0.163631 -0.847839 0)
(0.193996 -0.850908 0)
(0.225576 -0.85433 0)
(0.257142 -0.860263 0)
(0.285388 -0.87087 0)
(0.307591 -0.884135 0)
(0.323803 -0.894032 0)
(0.336895 -0.895091 0)
(0.351029 -0.885703 0)
(0.369791 -0.866745 0)
(0.395432 -0.837789 0)
(0.431279 -0.79943 0)
(0.481876 -0.754356 0)
(0.550742 -0.711212 0)
(0.636415 -0.676392 0)
(0.73493 -0.651037 0)
(0.841371 -0.632877 0)
(0.952551 -0.62137 0)
(0.0192409 -0.801967 0)
(0.0480211 -0.900868 0)
(0.0733068 -0.874982 0)
(0.101973 -0.871734 0)
(0.131078 -0.874332 0)
(0.160112 -0.877567 0)
(0.189364 -0.881296 0)
(0.219185 -0.885536 0)
(0.2493 -0.890851 0)
(0.277972 -0.898024 0)
(0.303007 -0.906145 0)
(0.324073 -0.912023 0)
(0.343391 -0.912137 0)
(0.364248 -0.904845 0)
(0.389337 -0.890608 0)
(0.421294 -0.870147 0)
(0.463078 -0.844411 0)
(0.517381 -0.816302 0)
(0.585274 -0.789383 0)
(0.665557 -0.766749 0)
(0.756381 -0.749905 0)
(0.854578 -0.737671 0)
(0.959315 -0.730373 0)
(0.0177624 -0.835707 0)
(0.0459601 -0.926417 0)
(0.0716158 -0.902667 0)
(0.0997267 -0.900402 0)
(0.128148 -0.90314 0)
(0.156544 -0.906453 0)
(0.184995 -0.910324 0)
(0.213546 -0.914852 0)
(0.242128 -0.919936 0)
(0.270154 -0.925492 0)
(0.296668 -0.931012 0)
(0.321542 -0.935007 0)
(0.346176 -0.935485 0)
(0.372949 -0.931235 0)
(0.404146 -0.922437 0)
(0.441647 -0.909751 0)
(0.487207 -0.894249 0)
(0.542287 -0.877307 0)
(0.607709 -0.861435 0)
(0.683238 -0.849157 0)
(0.76837 -0.841442 0)
(0.860765 -0.836769 0)
(0.960902 -0.835577 0)
(0.016659 -0.867685 0)
(0.0441607 -0.952074 0)
(0.0698045 -0.929998 0)
(0.0973473 -0.928468 0)
(0.125112 -0.931339 0)
(0.15293 -0.934731 0)
(0.18085 -0.938634 0)
(0.208808 -0.943157 0)
(0.236734 -0.94814 0)
(0.264581 -0.953282 0)
(0.292244 -0.958145 0)
(0.319837 -0.961962 0)
(0.348265 -0.963702 0)
(0.379089 -0.96268 0)
(0.413945 -0.958899 0)
(0.454222 -0.952751 0)
(0.501162 -0.945022 0)
(0.55589 -0.937103 0)
(0.6193 -0.930884 0)
(0.691496 -0.927966 0)
(0.77243 -0.928628 0)
(0.860242 -0.931297 0)
(0.956444 -0.936846 0)
(0.0158116 -0.898207 0)
(0.0425522 -0.977538 0)
(0.0678978 -0.956849 0)
(0.094832 -0.955917 0)
(0.121938 -0.958938 0)
(0.149169 -0.962489 0)
(0.176603 -0.966552 0)
(0.204224 -0.971177 0)
(0.232005 -0.976271 0)
(0.260026 -0.981592 0)
(0.288472 -0.986778 0)
(0.317667 -0.991379 0)
(0.34829 -0.99488 0)
(0.381378 -0.996939 0)
(0.418103 -0.997531 0)
(0.459547 -0.997006 0)
(0.506776 -0.996084 0)
(0.560774 -0.995903 0)
(0.622274 -0.99788 0)
(0.691455 -1.00316 0)
(0.768593 -1.01163 0)
(0.852262 -1.02175 0)
(0.944822 -1.03476 0)
(0.0151171 -0.927483 0)
(0.0410557 -1.00256 0)
(0.0658918 -0.983118 0)
(0.0921595 -0.982708 0)
(0.118576 -0.985901 0)
(0.145171 -0.989678 0)
(0.17204 -0.99404 0)
(0.199243 -0.998988 0)
(0.226834 -1.00445 0)
(0.254927 -1.01027 0)
(0.283765 -1.01623 0)
(0.313741 -1.02208 0)
(0.345425 -1.02758 0)
(0.379564 -1.0326 0)
(0.417035 -1.03719 0)
(0.458716 -1.04166 0)
(0.505509 -1.04666 0)
(0.558237 -1.05316 0)
(0.617505 -1.06231 0)
(0.683583 -1.07496 0)
(0.75695 -1.09078 0)
(0.836488 -1.10831 0)
(0.925266 -1.12919 0)
(0.0145045 -0.955641 0)
(0.0396057 -1.02698 0)
(0.0637735 -1.00871 0)
(0.0893071 -1.00878 0)
(0.114976 -1.01217 0)
(0.14087 -1.01622 0)
(0.167085 -1.02096 0)
(0.193717 -1.02638 0)
(0.220886 -1.03242 0)
(0.248757 -1.03898 0)
(0.277584 -1.04598 0)
(0.307736 -1.0533 0)
(0.339687 -1.06087 0)
(0.37402 -1.0687 0)
(0.411408 -1.07692 0)
(0.452565 -1.08586 0)
(0.498245 -1.09608 0)
(0.549129 -1.10843 0)
(0.605756 -1.12389 0)
(0.668454 -1.14318 0)
(0.737781 -1.16588 0)
(0.812877 -1.19061 0)
(0.897315 -1.21938 0)
(0.013932 -0.982743 0)
(0.0381547 -1.05065 0)
(0.061529 -1.03354 0)
(0.0862543 -1.03407 0)
(0.111102 -1.03768 0)
(0.136214 -1.04204 0)
(0.161684 -1.0472 0)
(0.187617 -1.05316 0)
(0.214162 -1.05991 0)
(0.241514 -1.06737 0)
(0.26993 -1.07554 0)
(0.299739 -1.08441 0)
(0.331335 -1.09403 0)
(0.365184 -1.1045 0)
(0.401802 -1.11601 0)
(0.441767 -1.12891 0)
(0.485702 -1.1437 0)
(0.534184 -1.16116 0)
(0.587707 -1.1822 0)
(0.646619 -1.20747 0)
(0.711474 -1.23653 0)
(0.781657 -1.26813 0)
(0.860993 -1.30459 0)
(0.013373 -1.00881 0)
(0.0366672 -1.07347 0)
(0.0591468 -1.05752 0)
(0.0829849 -1.0585 0)
(0.106931 -1.06234 0)
(0.131166 -1.06703 0)
(0.155782 -1.07264 0)
(0.180885 -1.07919 0)
(0.206626 -1.08669 0)
(0.233201 -1.09511 0)
(0.260851 -1.1045 0)
(0.289879 -1.11491 0)
(0.32061 -1.12647 0)
(0.35341 -1.13936 0)
(0.388679 -1.15381 0)
(0.426875 -1.17016 0)
(0.468512 -1.18893 0)
(0.514091 -1.21084 0)
(0.564033 -1.23675 0)
(0.618667 -1.26733 0)
(0.6785 -1.30215 0)
(0.74313 -1.34011 0)
(0.816334 -1.38392 0)
(0.0128083 -1.03382 0)
(0.0351158 -1.09534 0)
(0.0566181 -1.08058 0)
(0.0794889 -1.08197 0)
(0.102451 -1.08605 0)
(0.125709 -1.09109 0)
(0.149354 -1.09717 0)
(0.173482 -1.10431 0)
(0.198243 -1.11255 0)
(0.223811 -1.12192 0)
(0.250405 -1.13248 0)
(0.278289 -1.14436 0)
(0.307729 -1.1577 0)
(0.339021 -1.17275 0)
(0.37247 -1.18977 0)
(0.408427 -1.20913 0)
(0.447309 -1.2313 0)
(0.489536 -1.25699 0)
(0.535434 -1.28706 0)
(0.585294 -1.32221 0)
(0.63952 -1.36203 0)
(0.697847 -1.40555 0)
(0.763663 -1.45589 0)
(0.0122241 -1.05775 0)
(0.0334821 -1.1162 0)
(0.0539392 -1.10263 0)
(0.075765 -1.10442 0)
(0.0976635 -1.10874 0)
(0.119852 -1.11412 0)
(0.142411 -1.12064 0)
(0.16543 -1.12836 0)
(0.189044 -1.13731 0)
(0.213405 -1.14756 0)
(0.238698 -1.15921 0)
(0.265143 -1.1724 0)
(0.292956 -1.18733 0)
(0.322373 -1.20426 0)
(0.353617 -1.22348 0)
(0.386958 -1.24537 0)
(0.422718 -1.27038 0)
(0.461209 -1.2992 0)
(0.502664 -1.33272 0)
(0.547329 -1.37161 0)
(0.595471 -1.41553 0)
(0.646888 -1.46357 0)
(0.704335 -1.51905 0)
(0.0116081 -1.08053 0)
(0.0317559 -1.13596 0)
(0.0511147 -1.12361 0)
(0.071823 -1.12576 0)
(0.0925843 -1.1303 0)
(0.113616 -1.136 0)
(0.134989 -1.14294 0)
(0.156783 -1.15118 0)
(0.179108 -1.16078 0)
(0.20209 -1.17182 0)
(0.225881 -1.18442 0)
(0.250654 -1.19876 0)
(0.276578 -1.21503 0)
(0.303834 -1.23354 0)
(0.332576 -1.25458 0)
(0.363002 -1.27852 0)
(0.395348 -1.30583 0)
(0.429796 -1.33715 0)
(0.466521 -1.37338 0)
(0.505694 -1.41517 0)
(0.547434 -1.46225 0)
(0.591632 -1.5137 0)
(0.640359 -1.57282 0)
(0.0109537 -1.1021 0)
(0.0299401 -1.15457 0)
(0.0481633 -1.14346 0)
(0.0676878 -1.14592 0)
(0.0872433 -1.15067 0)
(0.107041 -1.15665 0)
(0.12714 -1.16397 0)
(0.147607 -1.17267 0)
(0.168526 -1.18283 0)
(0.189995 -1.19455 0)
(0.212126 -1.20795 0)
(0.235052 -1.22322 0)
(0.258891 -1.24058 0)
(0.283774 -1.26033 0)
(0.309802 -1.2828 0)
(0.337094 -1.30832 0)
(0.365804 -1.33738 0)
(0.396001 -1.37058 0)
(0.427816 -1.40877 0)
(0.461301 -1.45268 0)
(0.49647 -1.502 0)
(0.533332 -1.55583 0)
(0.57338 -1.61727 0)
(0.0102677 -1.1224 0)
(0.0280584 -1.17201 0)
(0.0451196 -1.16212 0)
(0.0634029 -1.16485 0)
(0.0816899 -1.16978 0)
(0.100189 -1.17601 0)
(0.118938 -1.18364 0)
(0.137994 -1.19272 0)
(0.157413 -1.20334 0)
(0.177267 -1.2156 0)
(0.197625 -1.22964 0)
(0.218578 -1.24563 0)
(0.240198 -1.26381 0)
(0.262568 -1.28448 0)
(0.285744 -1.30796 0)
(0.309765 -1.33461 0)
(0.334696 -1.36486 0)
(0.360537 -1.39932 0)
(0.387324 -1.43876 0)
(0.415028 -1.484 0)
(0.443558 -1.53467 0)
(0.473025 -1.58999 0)
(0.504451 -1.65255 0)
(0.00957369 -1.14139 0)
(0.0261558 -1.18829 0)
(0.0420328 -1.17956 0)
(0.0590294 -1.18251 0)
(0.0759934 -1.18759 0)
(0.0931404 -1.19401 0)
(0.110479 -1.20189 0)
(0.128056 -1.21128 0)
(0.145906 -1.22226 0)
(0.164068 -1.23493 0)
(0.182577 -1.24942 0)
(0.20148 -1.26592 0)
(0.220806 -1.28465 0)
(0.240589 -1.3059 0)
(0.260844 -1.33 0)
(0.281533 -1.3573 0)
(0.302634 -1.38822 0)
(0.32409 -1.4233 0)
(0.345813 -1.46331 0)
(0.367759 -1.50907 0)
(0.389622 -1.56029 0)
(0.41174 -1.61611 0)
(0.434605 -1.67867 0)
(0.00890846 -1.15906 0)
(0.0242894 -1.2034 0)
(0.0389536 -1.19573 0)
(0.054634 -1.19885 0)
(0.0702324 -1.20404 0)
(0.0859897 -1.21061 0)
(0.101872 -1.21867 0)
(0.117924 -1.22828 0)
(0.134155 -1.23951 0)
(0.150578 -1.25245 0)
(0.167194 -1.26723 0)
(0.184007 -1.28402 0)
(0.201014 -1.30305 0)
(0.218196 -1.32456 0)
(0.235522 -1.34889 0)
(0.252892 -1.37638 0)
(0.270202 -1.40745 0)
(0.287318 -1.44256 0)
(0.304065 -1.48246 0)
(0.320332 -1.52793 0)
(0.335637 -1.57893 0)
(0.350546 -1.63421 0)
(0.365023 -1.69575 0)
(0.00831024 -1.17539 0)
(0.0225081 -1.21731 0)
(0.0359158 -1.21053 0)
(0.0502688 -1.21378 0)
(0.0644754 -1.21903 0)
(0.078824 -1.2257 0)
(0.0932283 -1.23388 0)
(0.107732 -1.24362 0)
(0.12232 -1.25498 0)
(0.136983 -1.26806 0)
(0.151693 -1.28297 0)
(0.166417 -1.29985 0)
(0.181118 -1.31892 0)
(0.195734 -1.3404 0)
(0.210185 -1.36461 0)
(0.224317 -1.39187 0)
(0.237949 -1.42255 0)
(0.250852 -1.45712 0)
(0.26279 -1.49624 0)
(0.273516 -1.54068 0)
(0.282565 -1.5906 0)
(0.290443 -1.64449 0)
(0.296831 -1.70403 0)
(0.00779735 -1.19051 0)
(0.0208283 -1.23003 0)
(0.032923 -1.22396 0)
(0.0459534 -1.22732 0)
(0.0587624 -1.23259 0)
(0.0717044 -1.2393 0)
(0.0846364 -1.24752 0)
(0.0975986 -1.2573 0)
(0.110555 -1.26869 0)
(0.123474 -1.28177 0)
(0.136304 -1.29664 0)
(0.14898 -1.31343 0)
(0.161429 -1.3323 0)
(0.17356 -1.35348 0)
(0.185245 -1.37722 0)
(0.196282 -1.40383 0)
(0.206416 -1.43364 0)
(0.215307 -1.46709 0)
(0.222669 -1.50477 0)
(0.228132 -1.54743 0)
(0.231221 -1.59538 0)
(0.232308 -1.64721 0)
(0.230891 -1.70378 0)
(0.0073572 -1.20468 0)
(0.0192239 -1.24169 0)
(0.0299491 -1.23619 0)
(0.0416717 -1.23963 0)
(0.053097 -1.2449 0)
(0.0646527 -1.25161 0)
(0.0761459 -1.25981 0)
(0.0876094 -1.26955 0)
(0.0989877 -1.28086 0)
(0.110228 -1.29382 0)
(0.121257 -1.30851 0)
(0.131981 -1.32503 0)
(0.142297 -1.34351 0)
(0.152082 -1.36413 0)
(0.161166 -1.38711 0)
(0.169315 -1.4127 0)
(0.176192 -1.44119 0)
(0.181359 -1.47299 0)
(0.184478 -1.50856 0)
(0.185059 -1.54866 0)
(0.182474 -1.59374 0)
(0.177043 -1.64261 0)
(0.16793 -1.6953 0)
(0.00695018 -1.21803 0)
(0.017636 -1.25227 0)
(0.0269508 -1.24724 0)
(0.0373835 -1.25078 0)
(0.0474533 -1.25605 0)
(0.0576559 -1.26274 0)
(0.0677656 -1.27088 0)
(0.0778018 -1.28052 0)
(0.0876954 -1.29168 0)
(0.0973739 -1.30443 0)
(0.106743 -1.31882 0)
(0.115683 -1.33493 0)
(0.12406 -1.35285 0)
(0.131719 -1.37272 0)
(0.138459 -1.39471 0)
(0.144008 -1.41899 0)
(0.147955 -1.44581 0)
(0.149816 -1.47549 0)
(0.149144 -1.50837 0)
(0.145306 -1.54519 0)
(0.137538 -1.58649 0)
(0.125918 -1.6313 0)
(0.109225 -1.67904 0)
(0.00653338 -1.23009 0)
(0.0160009 -1.26123 0)
(0.0238846 -1.25668 0)
(0.0330481 -1.26032 0)
(0.0417994 -1.26558 0)
(0.0506876 -1.27224 0)
(0.059477 -1.2803 0)
(0.0681699 -1.2898 0)
(0.0766932 -1.30076 0)
(0.0849601 -1.31323 0)
(0.0928571 -1.32722 0)
(0.100244 -1.3428 0)
(0.106958 -1.36003 0)
(0.112814 -1.37898 0)
(0.117578 -1.39977 0)
(0.120938 -1.42252 0)
(0.12244 -1.44738 0)
(0.121564 -1.47456 0)
(0.117717 -1.50433 0)
(0.110144 -1.53724 0)
(0.0979398 -1.57391 0)
(0.0807248 -1.61364 0)
(0.0571765 -1.65525 0)
(0.00608905 -1.24035 0)
(0.0142825 -1.26801 0)
(0.0207135 -1.26402 0)
(0.0286302 -1.26777 0)
(0.0360991 -1.27301 0)
(0.0437057 -1.27961 0)
(0.0512284 -1.28757 0)
(0.0586543 -1.29689 0)
(0.0659157 -1.3076 0)
(0.0729203 -1.31971 0)
(0.0795465 -1.33322 0)
(0.085642 -1.34815 0)
(0.0910258 -1.36453 0)
(0.0954902 -1.38238 0)
(0.0987705 -1.40174 0)
(0.100521 -1.42268 0)
(0.100267 -1.44526 0)
(0.0974134 -1.46956 0)
(0.0912737 -1.49575 0)
(0.0810056 -1.52414 0)
(0.0655149 -1.55529 0)
(0.0438984 -1.58884 0)
(0.014558 -1.62318 0)
(0.00560712 -1.2496 0)
(0.0124576 -1.27337 0)
(0.0173926 -1.27012 0)
(0.0240584 -1.27398 0)
(0.0302609 -1.27921 0)
(0.0365938 -1.28576 0)
(0.042874 -1.2936 0)
(0.0490774 -1.30276 0)
(0.0551465 -1.31321 0)
(0.060998 -1.32494 0)
(0.0665178 -1.33794 0)
(0.0715567 -1.35218 0)
(0.0759366 -1.36764 0)
(0.0794433 -1.3843 0)
(0.0818027 -1.40211 0)
(0.0826585 -1.42106 0)
(0.0815172 -1.44111 0)
(0.0777507 -1.46221 0)
(0.0706093 -1.48432 0)
(0.0591673 -1.50753 0)
(0.0421635 -1.53212 0)
(0.0181794 -1.55798 0)
(-0.014887 -1.58349 0)
(0.00501268 -1.25996 0)
(0.0104419 -1.27933 0)
(0.0138524 -1.27715 0)
(0.0191959 -1.28115 0)
(0.0241068 -1.28643 0)
(0.0291254 -1.293 0)
(0.0341267 -1.30083 0)
(0.039083 -1.30991 0)
(0.0439513 -1.32023 0)
(0.0486683 -1.33175 0)
(0.053138 -1.34442 0)
(0.0572326 -1.35819 0)
(0.0608003 -1.37299 0)
(0.0636483 -1.38874 0)
(0.0655333 -1.40534 0)
(0.0661366 -1.42265 0)
(0.0650021 -1.44049 0)
(0.0615349 -1.45867 0)
(0.0549993 -1.47693 0)
(0.0444563 -1.49498 0)
(0.028575 -1.51269 0)
(0.00553364 -1.52976 0)
(-0.0273279 -1.54479 0)
(0.00413652 -1.27129 0)
(0.00806875 -1.28575 0)
(0.0100441 -1.28509 0)
(0.0139107 -1.28926 0)
(0.0174456 -1.29466 0)
(0.0210567 -1.30134 0)
(0.0246764 -1.30928 0)
(0.0282817 -1.31846 0)
(0.0318432 -1.32886 0)
(0.0353157 -1.34042 0)
(0.0386281 -1.3531 0)
(0.0416859 -1.36681 0)
(0.0443792 -1.38146 0)
(0.0465694 -1.39692 0)
(0.0480822 -1.41301 0)
(0.0486868 -1.42953 0)
(0.0480429 -1.44617 0)
(0.0456917 -1.46259 0)
(0.041044 -1.47832 0)
(0.0333082 -1.49277 0)
(0.0212985 -1.50524 0)
(0.00328879 -1.51491 0)
(-0.0233913 -1.52022 0)
(0.00284283 -1.278 0)
(0.00520545 -1.28753 0)
(0.00598991 -1.28863 0)
(0.0082419 -1.29291 0)
(0.0103179 -1.2984 0)
(0.0124353 -1.30515 0)
(0.0145633 -1.31314 0)
(0.0166854 -1.32237 0)
(0.0187829 -1.3328 0)
(0.0208273 -1.34438 0)
(0.0227778 -1.35704 0)
(0.0245808 -1.37069 0)
(0.0261727 -1.38519 0)
(0.0274804 -1.4004 0)
(0.0284034 -1.4161 0)
(0.0288102 -1.43203 0)
(0.0285122 -1.44784 0)
(0.0272441 -1.46309 0)
(0.024657 -1.47717 0)
(0.0202637 -1.48931 0)
(0.0133333 -1.49844 0)
(0.00275701 -1.50319 0)
(-0.0131402 -1.50164 0)
(0.00110064 -1.27465 0)
(0.00183888 -1.28071 0)
(0.00185364 -1.28306 0)
(0.00252476 -1.28724 0)
(0.00314666 -1.29259 0)
(0.00378275 -1.29914 0)
(0.00442404 -1.30689 0)
(0.00506452 -1.3158 0)
(0.00569576 -1.32583 0)
(0.00630483 -1.3369 0)