/*--------------------------------*- C++ -*----------------------------------*\
  =========                 |
  \\      /  F ield         | OpenFOAM: The Open Source CFD Toolbox
   \\    /   O peration     | Website:  https://openfoam.org
    \\  /    A nd           | Version:  13
     \\/     M anipulation  |
\*---------------------------------------------------------------------------*/
FoamFile
{
    format      ascii;
    class       volScalarField;
    location    "0.15";
    object      alpha.water;
}
// * * * * * * * * * * * * * * * * * * * * * * * * * * * * * * * * * * * * * //

dimensions      [];

internalField   nonuniform List<scalar> 
2268
(
1
1
1
1
1
1
1
1
1
1
1
1
1
1
1
1
1
1
0.999989
0.999975
0.999974
0.97406
0.715888
1
1
1
1
1
1
1
1
1
1
1
1
1
1
1
1
1
1
0.999998
0.999917
0.999969
0.999962
0.740761
1
1
1
1
1
1
1
1
1
1
1
1
1
1
1
1
1
1
1
0.999999
0.999932
0.999929
0.752521
1
1
1
1
1
1
1
1
1
1
1
1
1
1
1
1
1
1
1
1
0.999961
0.99995
0.826564
1
1
1
1
1
1
1
1
1
1
1
1
1
1
1
1
1
1
1
1
0.999914
0.999867
0.985023
1
1
1
1
1
1
1
1
1
1
1
1
1
1
1
1
1
1
1
0.999006
0.999688
0.999666
0.999613
1
1
1
1
1
1
1
1
1
1
1
1
1
1
1
1
1
0.999999
1
0.987734
0.992713
0.998176
0.996229
1
1
1
1
1
1
1
1
1
1
1
1
1
1
1
1
0.999987
0.999977
0.999969
0.935925
0.806026
0.960986
0.990647
1.28632e-18
3.46479e-19
9.53511e-20
9.85181e-21
2.60285e-22
4.58847e-24
1.58168e-25
6.99574e-27
2.63129e-28
8.18601e-30
2.20845e-31
5.15883e-33
1.02092e-34
1.67118e-36
2.18888e-38
2.17985e-40
1.52689e-42
5.08106e-45
2.65535e-45
2.06215e-17
3.77549e-17
1.95445e-17
2.02862e-18
4.93098e-20
8.2027e-22
2.22509e-23
7.51548e-25
2.43013e-26
6.97767e-28
1.77678e-29
3.94015e-31
7.41786e-33
1.15613e-34
1.42994e-36
1.31008e-38
7.76992e-41
1.76901e-43
2.65575e-45
9.57417e-16
2.93335e-15
2.28546e-15
2.54226e-16
4.82562e-18
7.00836e-20
1.43642e-21
3.53614e-23
9.11097e-25
2.25876e-26
5.18156e-28
1.06091e-29
1.86664e-31
2.71205e-33
3.07878e-35
2.46876e-37
1.279e-39
2.04459e-42
5.47876e-44
3.14596e-14
2.66053e-13
4.6418e-13
3.67661e-14
3.76373e-16
3.97639e-18
6.33738e-20
1.21519e-21
2.54224e-23
5.40926e-25
1.10598e-26
2.06055e-28
3.33205e-30
4.42238e-32
4.67774e-34
3.6814e-36
1.72912e-38
4.70634e-41
1.50201e-42
2.10024e-12
1.36386e-11
1.65728e-11
8.03482e-13
8.70735e-15
9.81994e-17
1.60672e-18
2.86588e-20
5.3029e-22
9.97689e-24
1.83064e-25
3.12505e-27
4.78713e-29
6.36917e-31
6.94753e-33
5.62406e-35
2.57965e-37
3.23099e-40
2.95185e-41
3.40623e-11
1.9684e-10
5.527e-11
2.79541e-12
5.30935e-14
9.10116e-16
1.93987e-17
3.87667e-19
7.16802e-21
1.28095e-22
2.19134e-24
3.52146e-26
5.13985e-28
6.50122e-30
6.7453e-32
5.35519e-34
2.91579e-36
1.00565e-38
4.50149e-40
1.78009e-10
4.52066e-10
6.60819e-11
3.23852e-12
1.10233e-13
3.5692e-15
1.04555e-16
2.69264e-18
5.82021e-20
1.08426e-21
1.86925e-23
2.97401e-25
4.22457e-27
5.15284e-29
5.14481e-31
4.01428e-33
2.67352e-35
1.80922e-37
5.60544e-39
1.76604e-10
2.87683e-10
2.16317e-11
6.09089e-13
2.87611e-14
1.05969e-14
2.523e-16
9.97825e-18
3.31452e-19
7.18029e-21
1.29133e-22
2.0408e-24
2.78116e-26
3.11718e-28
2.68139e-30
1.82661e-32
9.27003e-35
3.47716e-37
5.91398e-38
1
1
1
1
1
1
1
1
1
1
1
1
1
1
1
0.999985
0.999949
0.999479
0.917394
0.551985
0.112637
0.279609
0.949411
1
1
1
1
1
1
1
1
1
1
1
1
1
1
0.999997
0.999976
0.999088
0.796265
0.218583
0.00584533
0.00511485
0.0129867
0.871891
1
1
1
1
1
1
1
1
1
1
1
1
1
1
0.999992
0.999657
0.769858
0.12876
0.00310585
0.000719574
0.00115193
0.00413228
0.469788
1
1
1
1
1
1
1
1
1
1
1
1
1
0.999999
0.999929
0.883153
0.173699
0.003124
0.000359169
9.2221e-05
0.000257355
0.00122155
0.017078
1
1
1
1
1
1
1
1
1
1
1
1
0.999999
0.999992
0.999277
0.323774
0.00368694
0.000355856
4.73852e-05
1.54719e-05
4.58517e-05
0.000242953
0.00143887
1
1
1
1
1
1
1
1
1
1
1
1
0.999997
0.99985
0.605336
0.0181124
0.000398749
4.0951e-05
5.44212e-06
2.29878e-06
9.65313e-06
5.94324e-05
0.000338155
1
1
1
1
1
1
1
1
1
1
0.999999
0.999997
0.999977
0.965539
0.165019
0.000937284
8.42349e-05
4.92381e-06
5.73837e-07
3.50694e-07
1.74976e-06
9.11853e-06
8.42859e-05
1
1
1
1
1
1
1
0.999999
0.999998
0.999996
0.999992
0.999977
0.999814
0.462765
0.00322034
0.000132103
5.88472e-05
4.26649e-07
6.36779e-08
5.16678e-08
2.88168e-07
3.90117e-06
1.43943e-05
0.999999
0.999999
0.999999
0.999999
0.999998
0.999997
0.999995
0.999991
0.999982
0.999962
0.9999
0.999813
0.997644
0.137796
0.000342585
3.88562e-05
3.58299e-06
9.12703e-08
1.39172e-08
8.18225e-09
4.40002e-08
7.32644e-07
2.83744e-06
0.999993
0.999986
0.999987
0.999984
0.999977
0.999967
0.999949
0.999914
0.999832
0.999644
0.999382
0.998252
0.655996
0.0299013
0.000298468
9.02429e-05
9.32025e-08
4.32799e-08
5.9041e-09
1.64577e-09
5.97248e-09
6.82506e-08
4.00019e-07
0.999916
0.999859
0.999859
0.999827
0.999767
0.99967
0.999512
0.999213
0.998517
0.996782
0.988147
0.918181
0.317324
0.015845
5.3336e-05
1.67612e-05
9.11511e-08
8.36897e-08
5.41522e-09
7.57979e-10
8.84786e-10
5.49119e-09
5.11385e-08
0.999057
0.998584
0.998549
0.998233
0.997689
0.996833
0.992989
0.969376
0.902972
0.750936
0.506102
0.242553
0.0484976
0.0288787
0.00215261
3.17487e-06
5.4541e-07
2.22436e-08
4.00322e-09
5.66897e-10
2.4385e-10
7.64824e-10
6.48575e-09
0.896513
0.85438
0.843256
0.805416
0.74713
0.663202
0.543687
0.381166
0.223735
0.0783866
5.55762e-07
1.3868e-06
2.55378e-06
0.0185582
0.0104314
4.27613e-05
5.15676e-07
6.5685e-09
2.54308e-10
3.22332e-10
1.4254e-10
1.28066e-10
7.97585e-10
0.200236
0.151957
0.139761
0.10725
0.0693343
0.0306026
4.25697e-13
1.59147e-11
6.67648e-10
1.7526e-08
3.16715e-07
5.55856e-07
1.3868e-06
0.000132043
0.0104196
0.00183621
8.93666e-07
7.47104e-09
1.35359e-10
1.29428e-10
6.11033e-11
3.49338e-11
1.2153e-10
-2.53026e-19
-2.583e-21
-1.34141e-36
4.91005e-21
7.46559e-19
8.66806e-17
7.63437e-15
4.10193e-13
2.16297e-11
9.46936e-10
2.25341e-08
5.28808e-07
1.94394e-06
6.06732e-06
0.0102616
0.00247477
6.40254e-06
2.34907e-07
2.76017e-11
2.77699e-11
1.76949e-11
8.06159e-12
2.18079e-11
-6.55501e-19
-4.94161e-21
2.53671e-20
4.51897e-18
6.18489e-16
6.44115e-14
2.55351e-12
4.15835e-11
2.2725e-09
7.38221e-08
5.23232e-06
6.41838e-06
9.95735e-06
8.68744e-06
0.00476248
0.00164864
3.463e-08
4.04695e-09
7.7682e-12
1.42679e-12
4.06688e-12
1.36083e-12
7.31437e-12
4.10913e-22
2.53993e-21
6.77079e-19
9.90506e-17
1.05068e-14
7.39645e-13
3.34459e-11
1.08298e-09
3.78286e-08
7.02696e-07
1.48859e-05
0.000415071
0.000728247
0.000604497
0.00145413
0.000247066
5.00661e-09
1.35853e-11
5.18491e-13
1.29524e-13
8.14232e-13
1.96552e-13
1.17068e-12
4.1492e-22
1.38847e-20
2.51393e-18
2.93685e-16
2.459e-14
1.30948e-12
5.36005e-11
1.90121e-09
5.05771e-08
8.48346e-07
1.36044e-05
0.00077952
0.00117409
0.00117694
0.000778919
7.89462e-08
1.34726e-09
2.4161e-12
9.14629e-14
7.04489e-14
1.56508e-13
2.62313e-14
1.08491e-13
4.28782e-22
1.94574e-20
3.12926e-18
3.25757e-16
2.04535e-14
3.19329e-13
5.3916e-12
2.25868e-10
1.08783e-08
4.20887e-07
1.58026e-06
0.000320407
0.00105779
0.000459126
8.27602e-07
4.59191e-08
2.08171e-10
3.86072e-12
1.47168e-14
2.70683e-14
3.24465e-14
3.06806e-15
9.68279e-15
3.87619e-22
5.4985e-21
6.54441e-19
9.27896e-17
6.36203e-15
2.18169e-13
1.45053e-11
2.25057e-10
6.01519e-08
5.88062e-07
4.36046e-07
2.08017e-10
1.8773e-09
1.35179e-05
5.66709e-08
6.93272e-09
3.00987e-10
6.77364e-13
3.02053e-15
1.12749e-14
1.02696e-14
3.00723e-16
7.68734e-16
2.89986e-24
3.63182e-22
7.59118e-20
3.4342e-17
6.97077e-16
1.93644e-12
8.71916e-11
1.88493e-10
3.37667e-13
8.95664e-12
9.53659e-12
5.09356e-11
2.08028e-10
1.12514e-09
4.79816e-10
9.94921e-11
2.3165e-12
3.04458e-14
2.08165e-15
6.03648e-15
4.06778e-15
2.31626e-17
5.28151e-17
1.92101e-26
4.22934e-23
5.29044e-21
5.01791e-18
7.44708e-17
1.13636e-16
1.45404e-16
1.48872e-15
1.93099e-14
3.41197e-13
9.63916e-12
8.93856e-10
4.28899e-09
4.83384e-09
2.54092e-12
1.67533e-11
7.18614e-13
9.65035e-16
1.3684e-15
2.4012e-15
1.10746e-15
1.35508e-18
3.12897e-18
7.89171e-27
1.53541e-25
2.09309e-23
2.75416e-22
7.31086e-20
4.82155e-18
9.57373e-17
5.13767e-15
1.57822e-13
9.88256e-13
1.73135e-12
1.48043e-12
1.36397e-12
1.23871e-12
5.09174e-13
4.75046e-14
1.12504e-15
1.44818e-16
3.23967e-16
3.9666e-16
1.1219e-16
6.31836e-20
1.59746e-19
1.1177e-27
1.27805e-26
2.37624e-24
1.66122e-22
9.82651e-21
4.71198e-19
5.01018e-17
4.18355e-15
1.76554e-13
1.75901e-12
4.76163e-12
6.13749e-12
3.93493e-12
1.18447e-12
1.51781e-13
4.19742e-15
2.52256e-16
2.40533e-17
1.93894e-17
1.68672e-17
2.49421e-18
2.51444e-21
7.00557e-21
2.58967e-30
1.63434e-27
1.50789e-25
1.11014e-22
2.04832e-21
1.05033e-20
3.7359e-19
3.13442e-17
2.25794e-14
7.7658e-13
4.63418e-12
8.47794e-12
9.36132e-12
7.78935e-12
1.60608e-12
3.18373e-14
6.23865e-15
9.44134e-17
1.26361e-18
1.4133e-19
3.75519e-21
8.80834e-23
2.6481e-22
5.98387e-32
4.10965e-30
1.3727e-27
7.49827e-26
1.27633e-23
5.99208e-22
6.34199e-21
6.12823e-20
2.41239e-17
2.25293e-15
2.8472e-14
1.04211e-13
1.69967e-13
1.08703e-13
3.4506e-14
1.44822e-14
5.81316e-15
9.60026e-17
9.13079e-19
6.23516e-22
2.23998e-23
2.66356e-24
8.64502e-24
1.14932e-33
1.20919e-32
2.73899e-30
3.95055e-28
2.75231e-26
1.52136e-24
1.30458e-22
4.78948e-21
2.55733e-19
2.3774e-17
2.9014e-16
9.59683e-16
1.41068e-15
1.41354e-15
6.29996e-16
4.83607e-16
6.01203e-16
2.04605e-17
3.49556e-19
1.17141e-23
9.31615e-25
6.76783e-26
2.4437e-25
6.45335e-39
1.10666e-36
1.39376e-34
1.43592e-32
9.06463e-31
4.56386e-29
1.82253e-27
6.15649e-26
6.03987e-25
2.0363e-21
1.95153e-19
3.02695e-18
1.22012e-17
1.99616e-17
2.06813e-17
6.45083e-18
5.04055e-19
2.61159e-19
1.94175e-20
2.15411e-24
1.68712e-26
1.47544e-27
6.00013e-27
1.08574e-41
1.37857e-39
2.27764e-37
2.04284e-35
1.71075e-33
1.01317e-31
4.51628e-30
1.42553e-28
8.9583e-28
1.65138e-24
3.36691e-22
8.94112e-21
5.17052e-20
1.02965e-19
1.15142e-19
4.18466e-20
6.42046e-22
2.08056e-23
1.97914e-23
9.8003e-25
3.72562e-28
2.69478e-29
1.28207e-28
3.69157e-47
8.22585e-45
1.25985e-42
1.3098e-40
1.0167e-38
6.44359e-37
3.97082e-35
6.95806e-32
1.15274e-29
1.18176e-29
4.42817e-26
3.08318e-24
4.07004e-23
1.43209e-22
2.11201e-22
1.97998e-22
4.18461e-23
7.89465e-27
1.1394e-26
8.25752e-26
7.02137e-30
4.29845e-31
2.38832e-30
6.80502e-51
2.1561e-48
3.48317e-46
3.76343e-44
3.07174e-42
2.0227e-40
1.12138e-38
7.12743e-37
2.86962e-35
1.25978e-32
5.1538e-31
2.31574e-28
1.65995e-26
2.22319e-25
7.36758e-25
1.01428e-24
6.02419e-25
1.63744e-27
4.0658e-29
3.6233e-28
3.22757e-30
6.59604e-33
3.8856e-32
1.22409e-55
4.38103e-53
7.95655e-51
9.68305e-49
8.98556e-47
6.78062e-45
4.34802e-43
3.39898e-41
1.56559e-39
1.58856e-35
6.075e-37
8.82534e-32
1.13768e-29
2.4619e-28
1.09628e-27
1.69565e-27
1.21048e-27
1.62473e-29
2.37423e-30
5.64487e-32
4.11699e-31
1.00066e-34
5.5332e-34
1.09428e-60
4.66616e-58
9.92302e-56
1.41318e-53
1.52128e-51
1.32447e-49
9.74531e-48
6.69102e-46
1.33781e-42
2.04692e-42
6.94589e-39
6.47802e-38
3.092e-35
5.2869e-33
2.04745e-31
1.41114e-30
2.6582e-30
2.3519e-30
2.09176e-32
1.7278e-34
1.59144e-33
5.98279e-36
6.74324e-36
1.62869e-64
7.7462e-62
1.83445e-59
2.91113e-57
3.49718e-55
3.40531e-53
2.81065e-51
2.03454e-49
1.55837e-47
8.12018e-45
1.24215e-42
6.26733e-43
1.48294e-38
4.4157e-36
2.90323e-34
2.94241e-33
6.71702e-33
6.55757e-33
2.60707e-35
4.92558e-36
2.27336e-37
3.79536e-37
6.82313e-38
1.5231e-70
1.02939e-67
3.36161e-65
7.27006e-63
1.18364e-60
1.55174e-58
1.70764e-56
1.62423e-54
1.50321e-52
1.42151e-48
7.06899e-49
3.38717e-44
8.80534e-43
7.36439e-40
8.78436e-38
1.41459e-36
4.35247e-36
4.87452e-36
4.52399e-37
2.64509e-37
9.93725e-40
6.16163e-39
6.25312e-40
1.15321e-74
7.61758e-72
2.50854e-69
5.53575e-67
9.25164e-65
1.25391e-62
1.44127e-60
1.45109e-58
1.41861e-56
1.16837e-54
2.18692e-51
5.32092e-50
1.81941e-49
4.91201e-46
3.40859e-43
7.51093e-41
2.25487e-39
1.05576e-38
1.42514e-38
7.44057e-40
3.29313e-41
1.57838e-41
7.13778e-42
1.49226e-79
1.20051e-76
4.81783e-74
1.29739e-71
2.65081e-69
4.40046e-67
6.20508e-65
7.67304e-63
8.5299e-61
9.1108e-59
1.01228e-56
8.57009e-55
5.06524e-51
5.25005e-51
1.34463e-46
6.33925e-44
3.33737e-42
2.23326e-41
3.52815e-41
3.28738e-42
2.18033e-42
1.10041e-43
1.1692e-43
8.63911e-86
9.70553e-83
5.37138e-80
1.9942e-77
5.62411e-75
1.28585e-72
2.48136e-70
4.15886e-68
6.19304e-66
8.3902e-64
1.18076e-61
7.34907e-57
5.67428e-55
5.66173e-53
5.52115e-51
1.42926e-47
1.79723e-45
2.31044e-44
5.45383e-44
4.52144e-44
1.60013e-44
1.82075e-45
1.19819e-45
1.19409e-90
1.59731e-87
1.05163e-84
4.63053e-82
1.54598e-79
4.19609e-77
9.6892e-75
1.96674e-72
3.60002e-70
6.06522e-68
1.14088e-65
1.91747e-63
3.11302e-61
5.93558e-58
1.41759e-57
1.56247e-54
2.46945e-50
6.55402e-48
1.34544e-46
3.75888e-46
8.19485e-47
2.29743e-47
8.24537e-48
7.77818e-97
1.5708e-93
1.50752e-90
9.58647e-88
4.60585e-85
1.79595e-82
5.95254e-80
1.7339e-77
4.55619e-75
1.10388e-72
2.51565e-70
7.00466e-68
3.75897e-64
3.73107e-63
1.91854e-59
1.01274e-58
7.89792e-54
7.38508e-51
3.22099e-49
1.30207e-48
4.62906e-49
2.65793e-49
9.51008e-50
1.63432e-105
6.66177e-102
1.18711e-98
1.38378e-95
1.21975e-92
8.72724e-90
5.28649e-87
2.79156e-84
1.31489e-81
5.63379e-79
2.23644e-76
1.03543e-73
3.96011e-71
2.28805e-66
2.64723e-63
7.4865e-61
1.31648e-58
3.35232e-54
4.63085e-52
3.45617e-51
3.26638e-51
3.50566e-51
1.52672e-51
3.27617e-118
6.80729e-114
4.44032e-110
1.72738e-106
5.01256e-103
1.17469e-99
2.32116e-96
3.99889e-93
6.15839e-90
8.65042e-87
1.12845e-83
1.38811e-80
1.79384e-77
2.52048e-74
3.90447e-71
1.19495e-67
1.45849e-68
1.74174e-61
2.27498e-56
3.76467e-54
5.26086e-53
7.7138e-52
3.2838e-52
0.36705
3.75067e-10
3.44675e-10
2.51927e-10
0.501911
0.0173558
3.60273e-09
1.09744e-07
0.492455
0.109101
6.0955e-05
2.09147e-07
0.348058
0.217995
0.00326741
0.000203062
0.0508319
0.19111
0.0565081
0.000571947
0.00416267
0.0436501
0.0647068
0.0373812
0.000967851
0.00295589
0.024869
0.0370884
0.000222028
0.000576279
0.000961682
0.00354487
3.15183e-05
0.000112622
0.000153623
0.00016583
4.51011e-06
1.46062e-05
2.19459e-05
2.37337e-05
5.87171e-07
1.75256e-06
2.72167e-06
2.87293e-06
7.02309e-08
1.90899e-07
3.0484e-07
3.13342e-07
7.88676e-09
2.05816e-08
3.1627e-08
3.15303e-08
8.42278e-10
2.09796e-09
3.074e-09
2.97034e-09
9.36056e-11
2.01671e-10
2.80172e-10
2.6105e-10
1.22655e-11
2.18505e-11
2.77669e-11
2.47621e-11
2.68576e-12
3.87615e-12
3.86032e-12
3.22756e-12
3.10793e-13
4.46101e-13
4.52067e-13
3.44166e-13
2.40605e-14
3.27558e-14
3.28994e-14
2.24886e-14
1.74077e-15
2.11451e-15
1.98024e-15
1.21674e-15
1.10777e-16
1.23103e-16
1.09284e-16
6.07171e-17
6.13807e-18
6.34973e-18
5.35951e-18
2.72009e-18
2.96956e-19
2.87884e-19
2.33647e-19
1.09225e-19
1.24936e-20
1.16747e-20
8.96357e-21
3.93613e-21
4.57727e-22
4.20515e-22
3.05365e-22
1.27615e-22
1.47026e-23
1.33659e-23
9.31149e-24
3.7381e-24
4.15483e-25
3.75507e-25
2.55366e-25
1.0146e-25
1.03642e-26
9.34516e-27
6.32802e-27
2.63993e-27
2.29021e-28
2.0646e-28
1.42427e-28
6.35135e-29
4.49971e-30
4.05624e-30
2.92688e-30
1.37955e-30
7.88323e-32
7.09845e-32
5.52273e-32
2.70615e-32
1.21595e-33
1.15055e-33
9.38348e-34
4.77055e-34
1.66487e-35
1.71494e-35
1.44839e-35
7.63128e-36
2.03756e-37
2.35989e-37
2.03108e-37
1.13973e-37
2.2387e-39
2.97925e-39
2.61227e-39
1.65655e-39
2.22026e-41
3.4376e-41
3.10851e-41
2.27039e-41
1.99272e-43
3.63329e-43
3.44568e-43
2.89254e-43
1.66335e-45
3.53947e-45
3.57584e-45
3.44204e-45
1.36114e-47
3.1588e-47
3.58783e-47
3.81849e-47
1.14267e-49
2.60508e-49
3.59853e-49
3.91079e-49
8.63105e-52
1.79145e-51
2.89248e-51
3.45022e-51
3.2838e-52
4.64247e-52
9.17474e-52
1.75312e-51
1.82505e-10
1.01206e-09
2.09819e-10
1.12817e-11
9.48373e-13
1.06308e-13
3.73855e-15
9.38734e-17
2.5156e-18
6.59948e-20
1.55985e-21
3.10212e-23
5.20515e-25
7.20931e-27
7.75682e-29
5.8707e-31
2.39152e-33
2.2434e-36
6.70161e-37
2.34611e-07
4.72139e-08
7.22939e-09
2.64422e-10
5.30765e-11
3.57616e-13
4.56622e-14
5.3241e-16
5.00854e-18
1.33799e-19
4.00436e-21
9.13795e-23
1.62046e-24
2.33851e-26
2.71387e-28
2.37189e-30
1.38315e-32
4.27443e-35
3.78255e-36
6.63683e-07
4.94543e-06
4.86164e-07
4.22963e-09
2.40928e-10
1.87678e-11
1.27296e-12
2.3298e-14
1.5179e-16
3.22401e-19
8.06928e-22
6.53426e-23
2.20072e-24
3.18309e-26
3.56706e-28
3.27685e-30
2.26869e-32
9.96769e-35
3.85826e-36
7.12649e-07
3.81216e-05
1.6679e-05
1.22397e-06
4.58257e-08
1.43811e-09
2.77432e-11
5.58072e-13
1.08074e-14
1.04451e-16
8.34414e-19
5.86085e-21
3.63615e-23
1.94296e-25
8.26729e-28
2.66777e-30
9.40851e-33
3.87297e-35
3.98898e-36
4.36537e-05
5.59034e-05
4.35305e-05
4.9824e-06
2.18809e-07
7.60551e-09
1.91417e-10
3.76824e-12
1.24636e-13
2.02048e-15
1.96679e-17
1.59441e-19
1.05582e-21
5.28744e-24
1.8128e-26
3.83743e-29
4.61909e-32
5.3118e-35
5.1578e-36
0.00184306
0.000143101
4.02668e-05
4.44357e-06
2.78599e-07
1.24941e-08
4.17375e-10
1.05391e-11
3.0606e-13
1.13911e-14
1.61368e-16
1.51997e-18
1.18624e-20
7.46257e-23
3.38821e-25
9.23302e-28
8.02085e-31
6.91936e-34
6.06461e-35
0.0106118
0.000450609
4.03641e-05
3.57415e-06
2.30352e-07
1.08203e-08
3.85432e-10
1.07489e-11
2.62068e-13
1.97995e-14
3.69495e-16
4.14017e-18
3.96285e-20
2.95951e-22
1.68087e-24
6.81623e-27
1.7179e-29
1.62428e-32
8.34991e-34
0.00507722
0.000952455
2.00981e-05
1.60776e-06
1.09109e-07
5.56307e-09
2.18349e-10
6.83372e-12
2.06103e-13
1.18365e-14
2.26136e-16
2.98496e-18
3.31293e-20
2.9314e-22
2.01623e-24
1.03641e-26
3.70322e-29
7.70479e-32
2.51789e-33
0.000115914
0.000102307
6.74678e-06
2.07086e-07
1.31058e-08
6.60549e-10
2.66725e-11
9.99236e-13
7.70583e-14
2.23383e-15
4.35209e-17
7.25684e-19
9.70425e-21
1.03199e-22
8.57551e-25
5.3887e-27
2.42016e-29
6.91089e-32
5.26128e-34
1.27868e-05
3.57971e-06
4.0133e-07
2.59644e-08
1.62949e-09
8.27894e-11
3.85059e-12
3.48992e-13
1.37257e-14
3.05725e-16
5.79875e-18
9.22852e-20
1.20954e-21
1.28859e-23
1.0923e-25
7.1169e-28
3.36192e-30
1.02187e-32
7.99194e-35
1.46008e-06
3.19994e-07
3.9353e-08
2.93801e-09
1.85024e-10
1.06804e-11
1.14822e-12
6.13618e-14
1.70987e-15
3.96872e-17
7.79701e-19
1.27154e-20
1.70823e-22
1.8657e-24
1.62169e-26
1.08371e-28
5.24845e-31
1.63747e-33
9.60958e-36
1.49961e-07
3.09898e-08
3.91591e-09
2.97961e-10
2.14844e-11
2.74087e-12
1.84509e-13
6.34672e-15
1.78426e-16
4.27468e-18
8.54989e-20
1.4226e-21
1.95449e-23
2.18841e-25
1.95507e-27
1.34652e-29
6.74206e-32
2.18689e-34
9.19076e-37
1.41936e-08
2.79171e-09
3.48406e-10
3.26279e-11
4.71456e-12
3.87882e-13
1.63719e-14
5.53479e-16
1.59616e-17
3.84819e-19
7.75864e-21
1.30438e-22
1.81519e-24
2.064e-26
1.8776e-28
1.32049e-30
6.77219e-33
2.2602e-35
7.21059e-38
1.24961e-09
2.33299e-10
3.21226e-11
5.71524e-12
5.87536e-13
3.05005e-14
1.24074e-15
4.28315e-17
1.23262e-18
2.96937e-20
5.99485e-22
1.01147e-23
1.41598e-25
1.62365e-27
1.49324e-29
1.0645e-31
5.54912e-34
1.88942e-36
4.76604e-39
1.03956e-10
2.09461e-11
4.95748e-12
6.44599e-13
4.18548e-14
2.06613e-15
8.5367e-17
2.91959e-18
8.33431e-20
1.99596e-21
4.01487e-23
6.76463e-25
9.47898e-27
1.09057e-28
1.00881e-30
7.25162e-33
3.82162e-35
1.31968e-37
2.71464e-40
9.87209e-12
3.18421e-12
5.18807e-13
4.28089e-14
2.59739e-15
1.29085e-16
5.24747e-18
1.76856e-19
4.98782e-21
1.18296e-22
2.36204e-24
3.95983e-26
5.53392e-28
6.36494e-30
5.90012e-32
4.26034e-34
2.26094e-36
7.88437e-39
1.36698e-41
1.46097e-12
3.01731e-13
3.25343e-14
2.48032e-15
1.49868e-16
7.27563e-18
2.8965e-19
9.59086e-21
2.66477e-22
6.24234e-24
1.23414e-25
2.05346e-27
2.85499e-29
3.2745e-31
3.03391e-33
2.19478e-35
1.16966e-37
4.10598e-40
6.94015e-43
1.22976e-13
1.78616e-14
1.77965e-15
1.33636e-16
7.83905e-18
3.70591e-19
1.44218e-20
4.68342e-22
1.27987e-23
2.95683e-25
5.7796e-27
9.53051e-29
1.31627e-30
1.50312e-32
1.38974e-34
1.00547e-36
5.37101e-39
1.89404e-41
3.22479e-44
7.18571e-15
9.7292e-16
9.13439e-17
6.54138e-18
3.71301e-19
1.70923e-20
6.49884e-22
2.06914e-23
5.55976e-25
1.2662e-26
2.4457e-28
3.99448e-30
5.47672e-32
6.22235e-34
5.7359e-36
4.14629e-38
2.21754e-40
7.84527e-43
1.3397e-45
3.93789e-16
5.06465e-17
4.40823e-18
2.94819e-19
1.59893e-20
7.15565e-22
2.66108e-23
8.30925e-25
2.1964e-26
4.93274e-28
9.41884e-30
1.52409e-31
2.07463e-33
2.345e-35
2.15473e-37
1.55563e-39
8.32538e-42
2.9527e-44
5.04266e-47
1.98581e-17
2.43108e-18
2.01306e-19
1.26044e-20
6.39202e-22
2.74038e-23
9.94234e-25
3.04927e-26
7.93743e-28
1.75985e-29
3.32413e-31
5.33265e-33
7.2111e-35
8.11311e-37
7.4337e-39
5.36093e-41
2.87069e-43
1.02047e-45
1.73785e-48
9.10248e-19
1.07105e-19
8.5474e-21
5.12771e-22
2.46246e-23
9.8672e-25
3.44179e-26
1.02897e-27
2.63922e-29
5.78733e-31
1.08301e-32
1.72438e-34
2.31834e-36
2.59779e-38
2.37496e-40
1.71163e-42
9.17286e-45
3.2693e-47
5.52673e-50
3.78151e-20
4.32477e-21
3.36137e-22
1.95503e-23
9.05504e-25
3.47684e-26
1.14318e-27
3.26757e-29
8.1569e-31
1.7655e-32
3.2791e-34
5.1904e-36
6.94741e-38
7.76069e-40
7.08393e-42
5.10464e-44
2.73923e-46
9.79486e-49
1.63337e-51
1.42165e-21
1.59797e-22
1.22345e-23
6.96731e-25
3.14368e-26
1.1717e-27
3.72089e-29
1.01751e-30
2.4157e-32
5.09633e-34
9.30822e-36
1.46389e-37
1.9534e-39
2.17831e-41
1.98753e-43
1.43294e-45
7.7041e-48
2.76752e-50
4.51736e-53
4.83434e-23
5.39989e-24
4.11842e-25
2.32017e-26
1.0292e-27
3.75377e-29
1.16325e-30
3.09482e-32
7.1319e-34
1.44498e-35
2.54864e-37
3.93958e-39
5.20195e-41
5.78538e-43
5.27936e-45
3.81234e-47
2.05486e-49
7.42746e-52
1.17987e-54
1.48738e-24
1.66968e-25
1.2825e-26
7.21901e-28
3.17703e-29
1.14338e-30
3.48225e-32
9.08463e-34
2.05065e-35
4.06191e-37
6.98847e-39
1.04796e-40
1.34934e-42
1.48363e-44
1.34445e-46
9.69593e-49
5.2365e-51
1.90643e-53
2.93896e-56
4.17382e-26
4.70367e-27
3.6991e-28
2.10033e-29
9.25039e-31
3.31121e-32
9.98397e-34
2.57063e-35
5.71637e-37
1.1147e-38
1.88753e-40
2.78494e-42
3.52642e-44
3.80173e-46
3.38479e-48
2.41772e-50
1.30167e-52
4.76283e-55
7.14461e-58
1.0996e-27
1.19085e-28
9.89556e-30
5.72362e-31
2.54334e-32
9.12284e-34
2.7421e-35
7.01225e-37
1.54504e-38
2.9805e-40
4.99053e-42
7.28258e-44
9.12573e-46
9.74103e-48
8.6008e-50
6.0909e-52
3.25664e-54
1.19447e-56
1.75599e-59
2.61593e-29
2.92739e-30
2.41757e-31
1.46452e-32
6.61527e-34
2.39426e-35
7.21991e-37
1.8446e-38
4.04878e-40
7.76452e-42
1.2911e-43
1.87018e-45
2.32689e-47
2.46795e-49
2.16784e-51
1.52923e-53
8.16237e-56
3.01572e-58
4.34372e-61
5.65783e-31
6.65972e-32
5.54469e-33
3.5298e-34
1.63174e-35
5.99658e-37
1.8248e-38
4.68307e-40
1.02909e-41
1.97083e-43
3.26779e-45
4.71557e-47
5.84377e-49
6.1746e-51
5.40795e-53
3.80907e-55
2.03519e-57
7.6012e-60
1.07952e-62
1.11651e-32
1.40609e-33
1.20601e-34
8.04397e-36
3.82829e-37
1.4366e-38
4.43506e-40
1.14895e-41
2.53917e-43
4.87641e-45
8.09278e-47
1.16735e-48
1.44525e-50
1.52549e-52
1.33571e-54
9.42016e-57
5.05693e-59
1.91991e-61
2.72801e-64
2.04383e-34
2.75494e-35
2.50818e-36
1.74043e-37
8.57172e-39
3.30099e-40
1.03877e-41
2.72857e-43
6.08959e-45
1.17722e-46
1.96225e-48
2.83832e-50
3.52108e-52
3.72363e-54
3.27009e-56
2.31901e-58
1.25895e-60
4.90871e-63
7.17442e-66
3.47645e-36
5.03926e-37
5.01237e-38
3.59091e-39
1.8383e-40
7.29699e-42
2.35046e-43
6.28515e-45
1.42183e-46
2.77643e-48
4.66325e-50
6.78496e-52
8.46054e-54
8.99607e-56
7.96084e-58
5.71719e-60
3.17614e-62
1.29497e-64
2.03558e-67
5.48336e-38
8.69104e-39
9.6129e-40
7.09604e-41
3.79066e-42
1.55685e-43
5.15237e-45
1.40755e-46
3.23846e-48
6.40832e-50
1.08797e-51
1.5975e-53
2.00988e-55
2.1596e-57
1.94055e-59
1.42924e-61
8.2951e-64
3.63618e-66
6.48243e-69
8.2976e-40
1.47724e-40
1.72814e-41
1.34889e-42
7.54474e-44
3.21701e-45
1.09749e-46
3.07283e-48
7.2129e-50
1.45089e-51
2.49814e-53
3.71626e-55
4.74296e-57
5.19244e-59
4.80196e-61
3.70681e-63
2.31959e-65
1.12879e-67
2.36259e-70
1.20952e-41
2.37783e-42
2.98971e-43
2.47698e-44
1.45525e-45
6.46174e-47
2.27921e-48
6.55968e-50
1.57565e-51
3.23251e-53
5.66751e-55
8.58996e-57
1.12198e-58
1.26961e-60
1.23646e-62
1.03343e-64
7.22518e-67
3.9774e-69
9.69569e-72
1.67592e-43
3.67869e-44
5.00027e-45
4.41284e-46
2.73149e-47
1.26661e-48
4.63207e-50
1.37434e-51
3.38923e-53
7.12108e-55
1.27894e-56
1.99351e-58
2.70638e-60
3.24325e-62
3.44007e-64
3.22513e-66
2.56946e-68
1.58383e-70
4.31421e-73
2.21635e-45
5.49257e-46
8.11964e-47
7.66184e-48
5.01161e-49
2.43358e-50
9.2534e-52
2.83961e-53
7.22029e-55
1.56355e-56
2.90574e-58
4.73527e-60
6.85771e-62
9.01129e-64
1.07795e-65
1.15337e-67
1.03442e-69
6.91309e-72
2.00923e-74
2.81331e-47
7.95287e-48
1.28661e-48
1.30316e-49
9.03468e-51
4.60742e-52
1.82765e-53
5.82688e-55
1.53808e-56
3.47094e-58
6.79574e-60
1.18997e-61
1.90607e-63
2.84108e-65
3.88705e-67
4.67443e-69
4.55938e-71
3.19362e-73
9.57706e-76
3.45371e-49
1.12417e-49
2.00224e-50
2.18519e-51
1.61095e-52
8.6587e-54
3.60072e-55
1.20163e-56
3.33325e-58
7.99525e-60
1.69834e-61
3.31442e-63
6.06519e-65
1.03555e-66
1.58952e-68
2.07296e-70
2.12382e-72
1.52218e-74
4.62032e-77
3.40535e-51
1.42472e-51
2.94075e-52
3.54223e-53
2.82016e-54
1.61806e-55
7.15299e-57
2.54364e-58
7.58819e-60
1.9991e-61
4.78844e-63
1.0741e-64
2.25932e-66
4.32059e-68
7.17473e-70
9.81252e-72
1.03123e-73
7.45809e-76
9.40234e-79
7.14771e-52
1.38897e-52
1.60299e-53
1.23035e-54
6.81387e-56
2.90197e-57
9.90398e-59
2.90323e-60
9.42005e-62
2.8355e-63
7.87289e-65
2.03224e-66
4.79294e-68
9.91808e-70
1.73018e-71
2.43421e-73
2.59593e-75
1.88483e-77
8.36969e-79
)
;

boundaryField
{
    leftWall
    {
        type            zeroGradient;
    }
    rightWall
    {
        type            zeroGradient;
    }
    lowerWall
    {
        type            zeroGradient;
    }
    atmosphere
    {
        type            inletOutlet;
        inletValue      uniform 0;
        value           nonuniform List<scalar> 
46
(
0
0
0
0
0
0
0
0
0
0
0
0
0
0
0
0
0
0
0
0
5.26086e-53
7.7138e-52
3.2838e-52
3.2838e-52
4.64247e-52
9.17474e-52
1.75312e-51
7.14771e-52
1.38897e-52
1.60299e-53
1.23035e-54
6.81387e-56
2.90197e-57
9.90398e-59
2.90323e-60
9.42005e-62
2.8355e-63
7.87289e-65
2.03224e-66
4.79294e-68
9.91808e-70
1.73018e-71
2.43421e-73
2.59593e-75
1.88483e-77
8.36969e-79
)
;
    }
    defaultFaces
    {
        type            empty;
    }
}


// ************************************************************************* //
