/*--------------------------------*- C++ -*----------------------------------*\
  =========                 |
  \\      /  F ield         | OpenFOAM: The Open Source CFD Toolbox
   \\    /   O peration     | Website:  https://openfoam.org
    \\  /    A nd           | Version:  13
     \\/     M anipulation  |
\*---------------------------------------------------------------------------*/
FoamFile
{
    format      ascii;
    class       surfaceScalarField;
    location    "0.15";
    object      alphaPhi.water;
}
// * * * * * * * * * * * * * * * * * * * * * * * * * * * * * * * * * * * * * //

dimensions      [0 3 -1 0 0 0 0];

internalField   nonuniform List<scalar> 
4432
(
4.35197e-06
-4.35197e-06
1.1172e-05
-6.82e-06
1.79188e-05
-6.7468e-06
2.4329e-05
-6.41019e-06
3.06859e-05
-6.357e-06
3.71996e-05
-6.51369e-06
4.39712e-05
-6.77152e-06
5.10396e-05
-7.0684e-06
5.84196e-05
-7.38002e-06
6.61095e-05
-7.68995e-06
7.40865e-05
-7.97702e-06
8.22957e-05
-8.20917e-06
9.06111e-05
-8.31545e-06
9.87841e-05
-8.17294e-06
0.000106417
-7.63335e-06
0.000112935
-6.51789e-06
0.000117348
-4.41303e-06
0.000117505
-1.57136e-07
0.000108854
8.64898e-06
8.53915e-05
2.34593e-05
4.64335e-05
3.89547e-05
5.63585e-06
3.96212e-05
4.14192e-06
4.3862e-06
-8.73817e-06
1.1187e-05
-1.36207e-05
1.79356e-05
-1.34954e-05
2.43576e-05
-1.28322e-05
3.07219e-05
-1.27213e-05
3.72434e-05
-1.30352e-05
4.4024e-05
-1.35521e-05
5.11026e-05
-1.4147e-05
5.84959e-05
-1.47733e-05
6.62037e-05
-1.53978e-05
7.42021e-05
-1.59754e-05
8.24422e-05
-1.64493e-05
9.08184e-05
-1.66916e-05
9.91103e-05
-1.64649e-05
0.000106945
-1.54677e-05
0.000113751
-1.33246e-05
0.00011872
-9.38142e-06
0.000121048
-2.485e-06
0.000120119
9.5772e-06
0.000112669
3.08884e-05
8.98347e-05
6.17857e-05
4.48072e-05
8.46428e-05
4.36317e-05
4.41011e-06
-1.31483e-05
1.11681e-05
-2.03787e-05
1.78726e-05
-2.01999e-05
2.42655e-05
-1.92251e-05
3.06078e-05
-1.90635e-05
3.71123e-05
-1.95398e-05
4.38794e-05
-2.03192e-05
5.09475e-05
-2.12151e-05
5.83362e-05
-2.2162e-05
6.60489e-05
-2.31105e-05
7.40681e-05
-2.39945e-05
8.23581e-05
-2.47393e-05
9.08337e-05
-2.51672e-05
9.93058e-05
-2.49369e-05
0.000107451
-2.36129e-05
0.000114772
-2.06461e-05
0.00012051
-1.5119e-05
0.000123306
-5.28088e-06
0.000121373
1.15099e-05
0.000113385
3.88765e-05
9.66644e-05
7.84742e-05
5.95819e-05
0.0001217
9.91588e-05
4.44006e-06
-1.75883e-05
1.11485e-05
-2.70872e-05
1.77887e-05
-2.68401e-05
2.41345e-05
-2.5571e-05
3.04457e-05
-2.53747e-05
3.69288e-05
-2.6023e-05
4.36801e-05
-2.70705e-05
5.07376e-05
-2.82726e-05
5.81251e-05
-2.95496e-05
6.5852e-05
-3.08374e-05
7.39125e-05
-3.2055e-05
8.22892e-05
-3.31161e-05
9.09189e-05
-3.37969e-05
9.96542e-05
-3.36722e-05
0.000108252
-3.22103e-05
0.000116309
-2.87036e-05
0.000123093
-2.19029e-05
0.000127372
-9.55989e-06
0.000127019
1.18631e-05
0.000118851
4.70439e-05
0.00010001
9.7294e-05
6.39649e-05
0.00015772
0.000168469
4.47654e-06
-2.20649e-05
1.11264e-05
-3.3737e-05
1.76835e-05
-3.33972e-05
2.39668e-05
-3.18542e-05
3.0239e-05
-3.16469e-05
3.66976e-05
-3.24815e-05
4.34314e-05
-3.38043e-05
5.04787e-05
-3.53198e-05
5.78685e-05
-3.69394e-05
6.56177e-05
-3.85867e-05
7.37369e-05
-4.01742e-05
8.22291e-05
-4.16083e-05
9.10515e-05
-4.26193e-05
0.000100112
-4.27327e-05
0.000109281
-4.13789e-05
0.00011826
-3.76833e-05
0.000126374
-3.00164e-05
0.000132554
-1.574e-05
0.000134991
9.42554e-06
0.000130018
5.20178e-05
0.000109605
0.000117652
7.05338e-05
0.000196736
0.000243931
4.52402e-06
-2.65889e-05
1.11023e-05
-4.03153e-05
1.75565e-05
-3.98514e-05
2.37634e-05
-3.80611e-05
2.999e-05
-3.78735e-05
3.64198e-05
-3.89113e-05
4.31322e-05
-4.05168e-05
5.01653e-05
-4.23528e-05
5.75539e-05
-4.4328e-05
6.53243e-05
-4.6357e-05
7.35064e-05
-4.83563e-05
8.21246e-05
-5.02265e-05
9.1154e-05
-5.16487e-05
0.000100567
-5.21457e-05
0.000110368
-5.11798e-05
0.000120374
-4.76893e-05
0.000129988
-3.9631e-05
0.000138502
-2.4254e-05
0.000145121
2.80709e-06
0.000146006
5.05148e-05
0.000125987
0.000137587
8.09376e-05
0.000241547
0.000324586
4.58405e-06
-3.11729e-05
1.10694e-05
-4.68007e-05
1.73992e-05
-4.61811e-05
2.35164e-05
-4.41784e-05
2.96886e-05
-4.40457e-05
3.60805e-05
-4.53032e-05
4.2761e-05
-4.71972e-05
4.97682e-05
-4.93601e-05
5.71437e-05
-5.17035e-05
6.49244e-05
-5.41377e-05
7.31614e-05
-5.65934e-05
8.18984e-05
-5.89635e-05
9.11366e-05
-6.08869e-05
0.000100922
-6.19312e-05
0.000111384
-6.16415e-05
0.000122461
-5.87662e-05
0.000133722
-5.08927e-05
0.000145068
-3.56005e-05
0.000156982
-9.10625e-06
0.000163099
3.97593e-05
0.000141766
0.000142481
8.99992e-05
0.000291096
0.000412773
4.64925e-06
-3.58222e-05
1.10117e-05
-5.31631e-05
1.72024e-05
-5.23719e-05
2.32187e-05
-5.01947e-05
2.93238e-05
-5.01509e-05
3.56638e-05
-5.16431e-05
4.22967e-05
-5.38301e-05
4.92625e-05
-5.63259e-05
5.661e-05
-5.9051e-05
6.43877e-05
-6.19154e-05
7.26661e-05
-6.48718e-05
8.15052e-05
-6.78026e-05
9.09468e-05
-7.03285e-05
0.000101118
-7.21027e-05
0.000112227
-7.27503e-05
0.000124358
-7.08975e-05
0.000137409
-6.39495e-05
0.000151539
-4.97413e-05
0.000166979
-2.45909e-05
0.000157569
2.23222e-05
0.000116175
7.72313e-05
8.33225e-05
0.000266313
0.000492444
-6.76997e-24
1.59428e-23
-3.00624e-24
2.23222e-24
-4.37874e-25
2.35625e-25
-1.72786e-26
-1.60992e-26
-3.10294e-28
-2.83188e-27
-7.5959e-30
-7.74203e-29
-2.28112e-31
-2.3284e-30
-6.15673e-33
-8.08077e-32
-1.39032e-34
-2.49868e-33
-2.69528e-36
-6.37793e-35
-4.45159e-38
-1.3722e-36
-6.12433e-40
-2.4625e-38
-6.81332e-42
-3.66193e-40
-5.86538e-44
-4.45833e-42
-3.78586e-46
-4.05137e-44
-1.61022e-48
-3.03122e-46
-2.25528e-51
-1.38015e-48
-3.63954e-52
-3.1713e-51
-3.65861e-52
-5.37513e-22
1.06976e-21
-5.73887e-22
9.27884e-22
-1.01386e-22
1.62511e-22
-3.26363e-24
-8.90309e-24
-5.02585e-26
-9.50551e-25
-9.84312e-28
-2.21418e-26
-2.2355e-29
-5.1915e-28
-4.9897e-31
-1.29282e-29
-9.92027e-33
-3.15939e-31
-1.71948e-34
-6.93299e-33
-2.51373e-36
-1.33831e-34
-2.97886e-38
-2.20542e-36
-2.73392e-40
-3.01864e-38
-1.81007e-42
-3.3301e-40
-7.43358e-45
-2.68493e-42
-1.48552e-47
-1.4817e-44
-3.90288e-51
-5.03907e-47
9.75913e-54
-4.44312e-50
-6.00698e-52
-4.62633e-20
8.10083e-20
-6.04868e-20
1.09563e-19
-1.4363e-20
2.59163e-20
-3.06345e-22
-6.95696e-21
-3.87226e-24
-2.07361e-22
-6.07425e-26
-3.01152e-24
-1.05456e-27
-5.09837e-26
-1.88549e-29
-9.32656e-28
-3.22173e-31
-1.77427e-29
-5.01693e-33
-3.26931e-31
-6.77216e-35
-5.57021e-33
-7.53253e-37
-8.28854e-35
-6.51227e-39
-1.02166e-36
-3.99346e-41
-9.78654e-39
-1.50708e-43
-6.82822e-41
-2.84077e-46
-3.32532e-43
-9.02515e-50
-9.14317e-46
-1.18205e-52
-1.60934e-48
-1.72031e-50
-3.04501e-18
4.19986e-18
-1.14094e-17
1.48165e-17
-1.85499e-18
5.29396e-18
-1.92453e-20
-1.41405e-18
-1.82595e-22
-1.98111e-20
-2.38136e-24
-2.06416e-22
-3.42287e-26
-2.90895e-24
-5.07154e-28
-4.38182e-26
-7.43766e-30
-6.84203e-28
-1.02467e-31
-1.06856e-29
-1.24483e-33
-1.59528e-31
-1.25417e-35
-2.13065e-33
-9.66602e-38
-2.43703e-35
-5.48744e-40
-2.2754e-37
-1.82175e-42
-1.65038e-39
-2.42252e-45
-8.02208e-42
4.13587e-49
-1.76106e-44
1.7281e-50
-1.12425e-47
-4.09702e-49
-2.75208e-16
3.83593e-16
-4.74016e-16
8.81165e-16
-4.31948e-17
1.15924e-16
-4.24526e-19
-2.12011e-17
-4.07369e-21
-3.97796e-19
-5.40063e-23
-4.98793e-21
-7.33727e-25
-8.13913e-23
-9.82643e-27
-1.22053e-24
-1.2843e-28
-1.71376e-26
-1.57365e-30
-2.38957e-28
-1.72964e-32
-3.15204e-30
-1.59652e-34
-3.83151e-32
-1.15592e-36
-4.11e-34
-5.99997e-39
-3.64369e-36
-1.58669e-41
-2.54292e-38
3.8358e-45
-1.19105e-40
7.75906e-47
-2.73989e-43
1.02557e-48
-1.63166e-46
-5.61949e-48
-5.75986e-15
7.36096e-15
-3.1881e-15
6.4837e-15
-1.71476e-16
4.80888e-17
-2.69666e-18
-4.4998e-17
-3.69719e-20
-1.78755e-18
-6.07775e-22
-3.62958e-20
-9.13351e-24
-9.36288e-22
-1.2154e-25
-1.65545e-23
-1.4871e-27
-2.36092e-25
-1.66833e-29
-3.15267e-27
-1.66763e-31
-3.96993e-29
-1.40475e-33
-4.63488e-31
-9.2268e-36
-4.77159e-33
-3.41135e-38
-4.1685e-35
-9.71234e-42
-2.85443e-37
7.04623e-43
-1.38343e-39
2.96609e-45
-4.9022e-42
3.08634e-47
-1.32379e-44
-2.53347e-47
-1.77898e-14
2.90756e-14
-2.70465e-15
1.60757e-14
-2.51534e-16
-1.80617e-16
-6.56384e-18
-5.9164e-17
-1.55563e-19
-2.54301e-18
-3.3018e-21
-1.32863e-19
-6.01038e-23
-3.36715e-21
-9.09808e-25
-8.44343e-23
-1.13808e-26
-1.8806e-24
-1.25531e-28
-2.78056e-26
-1.17495e-30
-3.37452e-28
-8.66391e-33
-3.59378e-30
-4.22585e-35
-3.26133e-32
-4.50325e-38
-2.4228e-34
1.35296e-39
-1.37754e-36
1.23424e-41
-5.65666e-39
6.68126e-44
-1.5359e-41
6.69417e-46
-1.10303e-44
7.28819e-46
-1.55006e-14
4.86852e-14
-7.70395e-15
2.48134e-14
-8.68173e-16
-6.12355e-15
-2.06757e-17
-9.0325e-16
-6.03845e-19
-1.66505e-17
-1.16787e-20
-1.19651e-18
-2.42234e-22
0
-4.738e-24
-2.84035e-23
-6.54072e-26
-1.11216e-23
-7.18401e-28
-3.05321e-25
-6.17694e-30
-4.62607e-27
-3.66693e-32
-5.3789e-29
-6.23273e-35
-5.45653e-31
1.26609e-36
-4.45508e-33
1.4362e-38
-2.31359e-35
7.71779e-41
-5.05092e-38
2.27185e-43
0
8.32915e-45
3.77528e-44
2.22141e-44
9.93427e-06
-4.57564e-05
2.31705e-05
-6.63993e-05
3.57797e-05
-6.49811e-05
4.81557e-05
-6.25708e-05
6.08626e-05
-6.28577e-05
7.4108e-05
-6.48885e-05
8.79849e-05
-6.7707e-05
0.000102588
-7.09286e-05
0.000118046
-7.4509e-05
0.000134499
-7.83691e-05
0.000152145
-8.25179e-05
0.000171156
-8.68134e-05
0.000191779
-9.09516e-05
0.000214463
-9.47866e-05
0.000239621
-9.7908e-05
0.000267871
-9.915e-05
0.000300289
-9.63985e-05
0.000329507
-7.93301e-05
0.000263429
-3.33836e-05
8.40314e-05
4.88208e-06
5.34995e-05
1.2441e-05
0.000104588
5.33435e-05
0.000458474
0.000107046
1.0042e-05
-5.57985e-05
2.25838e-05
-7.89411e-05
3.44439e-05
-7.68411e-05
4.62489e-05
-7.43758e-05
5.85056e-05
-7.51145e-05
7.13411e-05
-7.7724e-05
8.48173e-05
-8.11832e-05
9.90423e-05
-8.51536e-05
0.000114178
-8.96449e-05
0.000130407
-9.45982e-05
0.000147969
-0.00010008
0.000167105
-0.000105949
0.000188222
-0.000112069
0.000211817
-0.000118381
0.000238292
-0.000124383
0.000267626
-0.000128498
0.0002832
-0.000112275
0.00015295
-5.2232e-05
8.336e-06
-6.85737e-06
9.95639e-06
6.33571e-07
1.73491e-05
3.02715e-06
4.64287e-05
1.92667e-05
0.000325071
0.000108281
1.00596e-05
-6.58581e-05
2.17744e-05
-9.0656e-05
3.27801e-05
-8.78468e-05
4.39381e-05
-8.55338e-05
5.56418e-05
-8.68181e-05
6.7929e-05
-9.00112e-05
8.08457e-05
-9.40999e-05
9.45162e-05
-9.88241e-05
0.000109131
-0.000104259
0.000124888
-0.000110356
0.000142048
-0.00011724
0.000160941
-0.000124842
0.000181967
-0.000133096
0.000205327
-0.00014174
0.000231525
-0.000150584
0.000245041
-0.000142109
0.000116795
-7.80295e-05
8.40305e-06
-9.61588e-06
1.25894e-06
-6.04168e-07
1.53053e-06
8.13807e-08
3.51969e-06
4.80279e-07
1.7527e-05
3.70955e-06
6.3477e-05
6.52369e-05
9.94988e-06
-7.5808e-05
2.0717e-05
-0.000101423
3.08118e-05
-9.79417e-05
4.12546e-05
-9.59766e-05
5.22926e-05
-9.78561e-05
6.38864e-05
-0.000101605
7.60798e-05
-0.000106293
8.90128e-05
-0.000111757
0.000102894
-0.000118141
0.000117909
-0.00012537
0.000134351
-0.000133683
0.000152619
-0.000143109
0.000172769
-0.000153247
0.000194798
-0.000163769
0.000215266
-0.000171058
0.000135221
-0.000127832
9.98915e-06
-1.54681e-05
7.08208e-07
-1.27888e-06
7.49109e-08
1.85638e-09
1.06584e-07
7.561e-09
4.01369e-07
6.47271e-08
2.74191e-06
1.02088e-06
1.15986e-05
3.63217e-05
9.70294e-06
-8.55109e-05
1.94132e-05
-0.000111133
2.85585e-05
-0.000107087
3.82166e-05
-0.000105635
4.84693e-05
-0.000108109
5.92218e-05
-0.000112358
7.0525e-05
-0.000117596
8.25317e-05
-0.000123764
9.54571e-05
-0.000131066
0.000109455
-0.000139368
0.000124931
-0.000149159
0.000142154
-0.000160331
0.000160647
-0.000171743
0.000180196
-0.000183317
0.000165569
-0.000156484
1.51196e-05
-3.24521e-05
1.3336e-06
-2.34348e-06
1.12885e-08
-4.04152e-08
1.08455e-09
9.8568e-10
9.77445e-10
1.9143e-09
3.79498e-08
5.32595e-09
7.68649e-07
2.03451e-07
3.08779e-06
8.83796e-06
9.31437e-06
-9.48253e-05
1.78785e-05
-0.000119697
2.60486e-05
-0.000115257
3.48504e-05
-0.000114437
4.41976e-05
-0.000117456
5.39658e-05
-0.000122126
6.42175e-05
-0.000127848
7.51148e-05
-0.000134661
8.68598e-05
-0.000142811
9.9595e-05
-0.000152103
0.000113891
-0.000163455
0.000129547
-0.000175987
0.000146119
-0.000188315
0.000154174
-0.000191851
3.53566e-05
-9.7317e-05
2.23303e-06
-4.9429e-06
4.57369e-08
-2.56094e-07
1.70709e-10
1.09132e-09
-9.01496e-10
8.90345e-10
-2.60495e-10
3.26843e-10
-4.43463e-10
9.05691e-10
1.60168e-07
2.2398e-08
5.13504e-07
2.59343e-06
8.77703e-06
-0.000103602
1.61389e-05
-0.000127059
2.33205e-05
-0.000122439
3.11944e-05
-0.00012231
3.9524e-05
-0.000125786
4.81805e-05
-0.000130782
5.72377e-05
-0.000136905
6.686e-05
-0.000144283
7.72112e-05
-0.000153162
8.84742e-05
-0.000163366
0.000101174
-0.000176154
0.000114509
-0.000189322
0.000128725
-0.000202522
9.84917e-05
-0.000172272
4.6937e-06
-1.65009e-05
2.75111e-07
-6.68395e-07
9.93614e-10
8.10772e-10
-8.29158e-10
1.70282e-09
-1.97674e-10
1.31472e-10
-6.95643e-11
4.54895e-11
-2.01378e-10
1.50965e-10
1.58267e-08
2.62278e-09
5.13243e-08
4.45113e-07
8.10237e-06
-0.000111705
1.42385e-05
-0.000133195
2.04322e-05
-0.000128632
2.73161e-05
-0.000129194
3.45398e-05
-0.000133009
4.19871e-05
-0.00013823
4.97356e-05
-0.000144654
5.7927e-05
-0.000152474
6.66499e-05
-0.000161884
7.61254e-05
-0.00017284
8.63108e-05
-0.000186337
9.6598e-05
-0.0001996
0.000104432
-0.000210286
1.41035e-05
-8.38834e-05
5.78156e-07
-2.60315e-06
0
-7.13186e-08
-1.60779e-09
1.68087e-09
-1.34038e-10
1.52338e-10
-2.5197e-11
1.18968e-11
-9.32881e-12
5.64434e-12
-4.15117e-11
2.54294e-11
0
5.22877e-10
4.33211e-09
4.00804e-08
7.32596e-06
-0.00011903
1.22589e-05
-0.000138128
1.7487e-05
-0.00013386
2.3347e-05
-0.000135054
2.94151e-05
-0.000139077
3.55879e-05
-0.000144401
4.19146e-05
-0.000150979
4.84447e-05
-0.000159002
5.51186e-05
-0.000168552
6.20267e-05
-0.000179737
6.8352e-05
-0.000192606
7.55385e-05
-0.000206716
6.46349e-05
-0.000204267
2.17946e-06
-2.13888e-05
7.42704e-08
-4.99376e-07
-5.15402e-10
-3.14607e-09
-1.50183e-10
8.68768e-10
-1.16066e-11
2.61528e-12
-2.32214e-12
2.11771e-12
-8.61763e-13
6.50065e-13
-5.17737e-12
3.78415e-12
0
5.82917e-11
7.4082e-10
1.95554e-09
6.50952e-06
-0.000125538
1.02932e-05
-0.000141907
1.45907e-05
-0.000138153
1.94097e-05
-0.000139868
2.42663e-05
-0.000143926
2.9044e-05
-0.00014917
3.36953e-05
-0.000155617
3.81129e-05
-0.000163394
4.20352e-05
-0.000172416
4.53824e-05
-0.000182951
4.73759e-05
-0.000194453
4.94091e-05
-0.000207843
1.54389e-05
-0.000150567
3.56498e-07
-6.51932e-06
0
-1.58894e-07
-8.51954e-10
2.23258e-09
-2.94887e-11
6.75332e-11
-1.4029e-12
6.37953e-12
-2.48586e-13
7.60322e-13
-5.63168e-14
8.97677e-14
-3.27812e-13
4.86554e-13
0
6.86184e-12
1.16941e-10
3.71724e-10
5.68207e-06
-0.000131193
8.29708e-06
-0.000144476
1.16357e-05
-0.000141446
1.53172e-05
-0.000143494
1.87786e-05
-0.000147317
2.18644e-05
-0.00015216
2.44195e-05
-0.000158041
2.63203e-05
-0.000165063
2.7475e-05
-0.000173056
2.8447e-05
-0.000182815
3.08501e-05
-0.000187113
3.08024e-05
-0.000149621
2.12676e-07
-5.36763e-05
2.42175e-08
-7.21257e-06
0
-1.41333e-07
-7.0327e-12
1.98505e-09
-1.4238e-12
6.73382e-11
-4.68581e-13
1.409e-11
-4.27855e-14
8.15447e-13
-4.41363e-15
1.05587e-13
-7.45881e-15
8.04887e-14
2.5009e-12
1.04104e-12
1.44643e-11
7.44275e-11
4.7197e-06
-0.000135608
5.95873e-06
-0.000145254
8.1888e-06
-0.000143207
1.05374e-05
-0.000145284
1.24147e-05
-0.000148491
1.37287e-05
-0.000152568
1.45238e-05
-0.000154242
1.48803e-05
-0.000141031
1.52867e-05
-0.000116093
1.52162e-05
-7.87442e-05
1.34938e-05
-2.57921e-05
6.00497e-06
-1.85131e-06
3.81736e-07
-1.51202e-07
1.3361e-07
-8.87855e-06
1.24921e-08
-1.13608e-06
1.29001e-09
1.17296e-08
0
1.03059e-09
0
1.47507e-11
-2.04449e-15
8.26893e-13
-1.14975e-15
8.16454e-14
6.3266e-15
3.72605e-14
4.60562e-13
1.23687e-13
1.42228e-12
9.31199e-12
3.15579e-06
-8.78469e-05
2.80542e-06
-8.06452e-05
3.76513e-06
-7.73313e-05
4.59382e-06
-6.99444e-05
5.01606e-06
-6.00572e-05
5.18145e-06
-4.80731e-05
5.34279e-06
-2.89579e-05
5.10865e-06
-6.89877e-07
4.42516e-06
-2.77438e-08
5.73113e-06
-1.69944e-09
2.01134e-06
-2.2119e-10
1.63661e-07
-2.9361e-09
1.40086e-08
-8.86531e-10
9.18883e-07
-1.74436e-06
7.1719e-08
-1.52136e-06
4.70483e-09
4.24461e-08
1.10544e-10
5.586e-09
8.4236e-13
1.23764e-10
6.48128e-17
1.645e-12
-3.99963e-16
4.01344e-14
4.40192e-16
1.83458e-14
3.7888e-14
1.95252e-14
1.33398e-13
8.43407e-13
5.32442e-07
3.59616e-23
2.51972e-07
3.7377e-25
4.07289e-07
-1.47769e-23
5.13289e-07
-2.23066e-21
5.52209e-07
-2.59107e-19
7.74556e-07
-2.28767e-17
7.19362e-07
-1.21853e-15
2.94851e-08
-4.72125e-14
1.74312e-09
-2.02345e-12
7.1973e-11
-3.39736e-11
1.14655e-10
-1.8181e-10
3.27625e-10
-2.5881e-09
1.70716e-09
-1.57936e-09
8.65783e-08
-1.38354e-09
5.04728e-07
-1.3759e-06
6.89572e-09
1.22457e-07
8.66529e-11
1.22841e-08
1.67589e-13
2.09695e-10
-2.28314e-14
1.85197e-12
-6.73375e-16
1.38516e-14
-2.5236e-16
5.98734e-15
8.36144e-16
4.50123e-15
1.25556e-14
5.06217e-14
-7.0886e-25
9.50003e-23
-1.24061e-26
7.24959e-25
9.09628e-26
-1.48803e-23
2.32121e-23
-2.25577e-21
4.38545e-21
-2.63775e-19
5.79981e-19
-2.34883e-17
4.24754e-17
-1.2634e-15
2.19938e-15
-4.95231e-14
1.14968e-13
-2.14806e-12
1.05474e-11
-4.4865e-11
3.16923e-10
-5.00228e-10
1.10533e-09
-3.58242e-09
2.1127e-09
-2.34936e-09
4.84432e-09
-4.03868e-09
2.63151e-07
-9.59661e-07
0
1.57937e-07
-8.41681e-11
8.87826e-09
-1.7255e-12
8.52695e-11
-1.36149e-14
1.38911e-13
-4.45941e-16
2.16639e-15
-2.219e-16
1.44943e-15
-2.21145e-16
7.51601e-16
4.45428e-15
9.04524e-16
-1.58465e-24
-6.0924e-26
-2.87927e-26
-5.9177e-25
1.29037e-24
-3.16774e-23
2.81861e-22
-5.25523e-21
4.59588e-20
-6.76911e-19
5.55803e-18
-6.27743e-17
6.60254e-16
-3.39564e-15
7.15318e-14
-1.4093e-13
2.88585e-12
-6.70193e-12
1.09152e-10
-2.17385e-10
1.21966e-09
-4.29185e-09
3.58601e-09
-1.1276e-08
9.30506e-09
-1.30187e-08
3.78877e-08
-3.31698e-08
-2.91116e-08
-2.02771e-07
-7.39604e-09
7.57904e-08
-7.27669e-11
1.54356e-09
-1.04454e-13
1.39814e-11
-1.60569e-15
3.15632e-14
-1.82034e-16
2.02511e-16
-6.92845e-17
2.91388e-16
-1.27092e-16
1.04673e-16
7.79726e-16
-3.64799e-16
4.2372e-28
-6.16317e-26
1.57998e-26
-1.41234e-24
6.13967e-24
-3.00153e-22
1.15586e-21
-4.34061e-20
1.51547e-19
-4.44298e-18
1.70621e-17
-3.00692e-16
3.35956e-15
-1.57866e-14
2.06458e-13
-6.7369e-13
6.69338e-12
-2.30065e-11
1.70528e-10
-5.57801e-10
1.77917e-09
-9.7456e-09
-4.39426e-09
-1.3442e-07
-7.83595e-09
-1.71703e-07
-5.36906e-08
-5.97985e-08
-7.90924e-08
0
-1.33054e-09
3.60486e-08
-1.21942e-11
2.23589e-10
-2.80721e-14
1.81485e-12
-2.05561e-16
3.60747e-15
-5.64991e-17
2.65013e-17
-1.54087e-17
5.19602e-17
-2.37173e-17
1.36204e-17
6.82643e-17
-1.06672e-16
-5.32941e-28
-6.96139e-26
-8.25191e-26
-5.34399e-24
-2.4918e-23
-9.67793e-22
-4.84341e-21
-1.12968e-19
-6.01841e-19
-9.65327e-18
-8.53188e-18
-5.16779e-16
0
-2.35198e-14
0
-9.0667e-13
0
-2.57524e-11
0
-5.16212e-10
-7.19396e-09
-6.89363e-09
-1.27386e-07
-1.58422e-07
-1.3895e-07
-1.21681e-07
-1.41062e-07
-1.9986e-08
-3.34968e-08
2.94332e-08
-2.00609e-10
2.76153e-09
-1.63237e-12
2.44634e-11
-3.27546e-15
1.85681e-13
-1.62705e-17
3.33346e-16
-1.33849e-17
7.18066e-18
-2.73286e-18
8.9603e-18
-3.79606e-18
1.54479e-18
5.89025e-18
-1.6335e-17
-9.23216e-27
-8.77281e-26
-7.16804e-25
-9.54041e-24
-1.83835e-22
-1.50449e-21
-3.5317e-20
-1.47922e-19
-2.34035e-18
-9.93014e-18
-5.85363e-18
-4.5283e-16
-3.82649e-15
-1.92428e-14
-2.77178e-13
-6.06578e-13
-1.07057e-11
-2.11272e-11
-1.5028e-10
-4.06106e-10
-4.96737e-09
-7.90568e-10
-1.33614e-07
-5.64215e-10
-2.21843e-07
-3.40644e-09
-3.19623e-08
-6.81592e-10
-2.66123e-09
2.96959e-10
-2.28477e-11
1.30537e-10
-1.70181e-13
1.83362e-12
-3.19258e-16
1.50665e-14
-3.61934e-18
1.80147e-17
-3.11505e-18
2.01133e-18
-3.89296e-19
1.88994e-18
-4.99927e-19
1.4794e-19
4.6206e-19
-1.91116e-18
-1.54966e-25
-4.50586e-26
-1.52506e-24
-1.01468e-23
-3.40162e-22
-1.34838e-21
-5.06648e-20
-1.24957e-19
-3.61171e-18
-7.90209e-18
-6.35447e-17
-5.03067e-16
-1.44391e-15
-1.81137e-14
-4.96016e-13
-1.23806e-13
-5.92128e-11
-9.20893e-14
-9.14263e-11
-7.90154e-15
-3.75017e-11
-5.126e-14
-6.01126e-10
-5.31722e-13
-4.00578e-09
-2.39578e-12
-4.30143e-10
-1.19427e-11
-1.29501e-10
8.56982e-12
-1.89307e-12
4.8837e-12
-1.43193e-14
1.07511e-13
-1.87419e-17
7.8558e-16
-1.35487e-18
3.96386e-19
-1.00707e-18
7.87276e-19
-4.43995e-20
5.90033e-19
-5.3652e-20
1.16261e-20
3.14769e-20
-1.82914e-19
-4.45491e-26
-4.40133e-28
-1.01796e-23
-1.06416e-25
-1.34856e-21
-1.19457e-23
-1.25773e-19
-1.33826e-21
-8.24357e-18
-1.75676e-20
-1.68762e-15
-7.29412e-20
-1.59436e-14
-2.49308e-18
-2.57137e-15
-5.22863e-17
-1.37366e-15
-7.43502e-16
-8.80719e-15
-2.99315e-15
-4.86601e-14
-1.71738e-14
-4.21183e-13
-1.78509e-13
-2.28493e-12
-4.71733e-13
-1.35757e-11
-2.36063e-13
-4.95388e-12
1.08795e-13
-1.08087e-13
7.98796e-14
-7.76034e-16
9.68014e-16
-5.64015e-19
1.13898e-17
-6.34397e-19
1.3892e-19
-4.73905e-19
3.33806e-19
-3.99801e-21
1.857e-19
-4.67992e-21
7.3078e-22
1.84872e-21
-1.46148e-20
-4.39218e-28
-2.93909e-30
-1.0092e-25
-4.04382e-28
-1.16726e-23
-3.19933e-26
-1.35777e-21
-1.83495e-24
-3.22367e-21
-9.30451e-23
-9.56599e-21
-3.29409e-21
-2.34351e-18
-1.06924e-19
-5.29528e-17
-1.87642e-18
-7.69986e-16
-2.40251e-17
-3.62398e-15
-1.201e-16
-3.20856e-14
-2.13291e-16
-6.32454e-13
-4.16398e-16
-9.9497e-13
-2.42215e-16
-1.91462e-13
-4.68322e-16
-8.2037e-14
1.43911e-18
-1.33602e-15
6.83528e-16
-1.12802e-17
1.94555e-17
-1.68953e-19
2.08517e-19
-2.40722e-19
5.35928e-20
-1.48807e-19
7.97063e-20
-2.83854e-22
2.91605e-20
-3.32574e-22
3.70866e-23
9.3425e-23
-9.84644e-22
-4.04194e-30
-1.0857e-30
-1.55154e-28
-3.09884e-28
-1.3576e-26
-2.71562e-26
-8.47059e-25
-1.08049e-24
-4.95829e-23
-5.14073e-23
-1.94678e-21
-1.80181e-21
-6.62591e-20
-4.95521e-20
-2.96266e-18
-1.21422e-18
-5.78902e-17
-2.37695e-17
-2.07168e-16
-1.90328e-16
-2.19231e-16
-4.50432e-16
-2.27062e-16
-4.3276e-16
-2.50273e-16
-2.02269e-16
-6.31503e-16
-3.66774e-17
-7.09403e-16
-8.50298e-19
-1.96087e-17
6.51089e-18
-1.68672e-19
1.71855e-19
-3.4984e-20
1.0883e-20
-3.93349e-20
4.77194e-21
-1.80607e-20
5.1921e-21
-1.62996e-23
1.21809e-21
-1.95148e-23
1.57286e-24
4.0604e-24
-5.61875e-23
-1.17985e-30
-1.54917e-31
-2.54638e-28
-6.01778e-29
-2.23821e-26
-5.46581e-27
-9.1475e-25
-2.46954e-25
-4.42144e-23
-1.03388e-23
-1.5865e-21
-3.85775e-22
-5.21347e-20
-1.16064e-20
-2.40915e-18
-2.86623e-19
-6.6757e-17
-7.72704e-18
-4.00441e-16
-1.18951e-16
-7.23168e-16
-3.87108e-16
-6.64261e-16
-5.55834e-16
-2.62809e-16
-4.36437e-16
-3.5066e-17
-2.10558e-16
-8.5919e-18
-1.5457e-17
-4.03245e-19
1.267e-19
-6.88504e-21
3.6753e-20
-2.4576e-21
1.48119e-21
-2.168e-21
1.3043e-22
-7.29005e-22
9.27642e-23
-7.76608e-25
2.0235e-23
-9.58713e-25
5.67457e-26
1.51813e-25
-2.70465e-24
-1.55028e-31
-3.47872e-34
-6.08022e-29
-1.39127e-31
-5.57961e-27
-1.29927e-29
-2.66462e-25
-8.6201e-28
-1.17708e-23
-3.1645e-26
-3.90496e-22
-1.00305e-24
-1.20356e-20
-3.01378e-23
-3.09503e-19
-7.71391e-22
-1.47466e-17
-1.90383e-20
-2.52598e-16
-4.74214e-19
-8.00221e-16
-4.2922e-18
-1.03805e-15
-1.22702e-17
-8.78266e-16
-7.2512e-18
-3.34327e-16
-6.01126e-18
-6.53586e-18
-8.60856e-19
-1.2136e-18
2.66556e-20
-1.87801e-20
8.56632e-20
-2.41376e-22
2.31199e-21
-7.26014e-23
3.07582e-23
-1.85158e-23
1.41196e-24
-3.1095e-26
5.14059e-25
-3.96766e-26
1.74345e-27
4.88789e-27
-1.11633e-25
-3.67786e-34
-2.13007e-36
-1.39428e-31
-7.55585e-34
-1.34682e-29
-8.01242e-32
-8.79489e-28
-5.46524e-30
-3.30634e-26
-2.76163e-28
-1.11008e-24
-1.07964e-26
-3.233e-23
-2.61519e-25
-8.07308e-22
-6.28162e-24
-2.72759e-20
-1.5838e-22
-8.22706e-19
-4.27606e-21
-6.37963e-18
-3.84829e-20
-1.62359e-17
-1.02886e-19
-1.41792e-17
-1.15267e-19
-5.05806e-18
-7.71756e-20
-2.00175e-18
-1.83525e-20
-8.72358e-19
-2.89429e-21
-1.6978e-20
4.14005e-20
-1.50679e-22
1.65483e-21
-1.86065e-24
1.56062e-23
-4.91873e-25
2.69381e-26
-1.04911e-27
1.11782e-26
-1.38623e-27
4.53957e-29
1.35722e-28
-3.96523e-27
-2.25984e-36
-5.29638e-40
-7.59531e-34
-1.28155e-37
-8.12864e-32
-1.47586e-35
-5.58841e-30
-1.1225e-33
-2.86324e-28
-6.28856e-32
-1.12643e-26
-2.77873e-30
-2.84291e-25
-1.00776e-28
-7.20222e-24
-2.7305e-27
-2.42129e-22
-4.35228e-26
-7.81749e-21
-1.13251e-24
-5.54085e-20
-2.9311e-23
-1.19636e-19
-3.03625e-22
-1.23357e-19
-9.25979e-22
-6.61491e-20
-1.07549e-21
-4.11979e-20
-6.58994e-22
-4.93988e-20
-7.94566e-23
-3.17366e-21
2.01134e-22
-5.16287e-23
5.36383e-23
-3.63737e-26
2.69771e-24
-1.09652e-26
3.61431e-28
-2.97249e-29
2.2218e-28
-4.09453e-29
1.0018e-30
3.2562e-30
-1.21502e-28
-5.30044e-40
-4.2712e-43
-1.28711e-37
-1.10185e-40
-1.48926e-35
-1.36448e-38
-1.13757e-33
-1.12048e-36
-6.40813e-32
-6.7863e-35
-2.84479e-30
-3.25304e-33
-1.03685e-28
-1.28496e-31
-2.83756e-27
-3.82975e-30
-4.63776e-26
-6.65016e-29
-1.80995e-24
-1.78863e-27
-6.56508e-23
-5.43646e-26
-5.90759e-22
-8.49906e-25
-1.47756e-21
-3.72908e-24
-1.56946e-21
-5.47397e-24
-7.90179e-22
-3.95002e-24
-1.27285e-22
-7.02964e-25
-3.70536e-23
-1.17507e-28
-2.67839e-24
5.73392e-26
-8.05675e-28
1.92451e-26
-2.07514e-28
2.46777e-29
-7.12305e-31
4.04285e-30
-1.02517e-30
1.88212e-32
6.76501e-32
-3.21882e-30
-4.28606e-43
-4.26007e-47
-1.10826e-40
-1.1788e-44
-1.37884e-38
-1.59774e-42
-1.13686e-36
-1.43434e-40
-6.92779e-35
-9.58689e-39
-3.33842e-33
-5.08511e-37
-1.32412e-31
-2.22817e-35
-3.9794e-30
-7.41501e-34
-7.06945e-29
-1.44097e-32
-2.42681e-27
-3.69814e-31
-1.26481e-25
-1.16053e-29
-1.84892e-24
-3.0621e-28
-6.22701e-24
-2.82772e-27
-7.68127e-24
-7.44482e-27
-4.56266e-24
-7.5453e-27
-6.76697e-26
-3.93938e-27
-6.66911e-26
-2.15439e-28
-1.37701e-26
2.08941e-28
-1.1419e-28
7.18776e-29
-3.74686e-30
5.14164e-30
-1.44207e-32
5.4814e-32
-2.17823e-32
3.01092e-34
1.21999e-33
-7.38925e-32
-4.26041e-47
-2.17531e-51
-1.18312e-44
-6.61386e-49
-1.60967e-42
-9.84746e-47
-1.45054e-40
-9.7238e-45
-9.73278e-39
-7.16234e-43
-5.18301e-37
-4.19836e-41
-2.28038e-35
-2.04061e-39
-7.82742e-34
-8.43645e-38
-1.68486e-32
-2.5872e-36
-3.91237e-31
-5.02291e-35
-2.27686e-29
-1.44143e-33
-7.82683e-28
-4.59964e-32
-5.95682e-27
-1.25059e-30
-1.24347e-26
-1.14004e-29
-1.22866e-26
-2.68044e-29
-4.2229e-27
-2.26982e-29
-2.84893e-28
-5.5459e-30
-7.7567e-29
2.32738e-32
-6.39069e-30
1.64101e-31
-4.98954e-32
9.16119e-32
-2.47804e-34
2.93052e-34
-3.9364e-34
4.13861e-36
1.91527e-35
-1.47358e-33
-2.17591e-51
-3.65443e-55
-6.63743e-49
-1.23607e-52
-9.91668e-47
-2.0449e-50
-9.82596e-45
-2.24547e-48
-7.263e-43
-1.84212e-46
-4.27261e-41
-1.20536e-44
-2.08424e-39
-6.55931e-43
-8.65422e-38
-3.05519e-41
-2.67653e-36
-1.06228e-39
-4.62761e-35
-2.50767e-38
-1.69073e-33
-7.36792e-37
-1.06447e-31
-2.55014e-35
-3.97386e-30
-8.95327e-34
-2.87433e-29
-1.24509e-32
-5.19592e-29
-4.0398e-32
-4.27866e-29
-4.12194e-32
-3.02838e-31
-1.49598e-32
-2.13929e-31
-1.58418e-35
-5.40927e-32
1.9512e-34
-8.01419e-34
2.37463e-34
-3.64308e-36
1.26336e-35
-6.06951e-36
4.93587e-38
2.62688e-37
-2.55952e-35
-3.65458e-55
-1.25036e-60
-1.23978e-52
-4.75436e-58
-2.0574e-50
-8.8294e-56
-2.26617e-48
-1.08873e-53
-1.86489e-46
-1.00406e-51
-1.2241e-44
-7.39823e-50
-6.68229e-43
-4.54391e-48
-3.12261e-41
-2.39658e-46
-1.0937e-39
-9.38294e-45
-3.29098e-38
-4.12724e-43
-7.70337e-37
-8.85485e-42
-4.9769e-35
-2.92412e-40
-2.94199e-33
-1.01859e-38
-3.3657e-32
-3.80407e-37
-7.63674e-32
-7.84575e-36
-6.91448e-32
-3.61308e-35
-1.04137e-33
-3.91279e-35
-7.80426e-34
-9.47889e-36
-2.59398e-34
5.11937e-37
-2.77827e-35
8.5194e-37
-4.60802e-38
4.48976e-37
-8.01822e-38
5.78577e-40
3.1593e-39
-3.87717e-37
-1.25029e-60
-2.12651e-64
-4.76656e-58
-9.18979e-62
-8.87644e-56
-1.93762e-59
-1.09752e-53
-2.71281e-57
-1.01495e-51
-2.84308e-55
-7.4991e-50
-2.3838e-53
-4.61852e-48
-1.66901e-51
-2.44272e-46
-1.00578e-49
-1.00126e-44
-5.33205e-48
-4.22787e-43
-2.30208e-46
-9.71688e-42
-7.09537e-45
-3.20993e-40
-2.20031e-43
-1.81864e-38
-8.62968e-42
-1.48047e-36
-3.76985e-40
-3.13308e-35
-1.13903e-38
-1.03282e-34
-7.82996e-38
-9.94212e-35
-1.11827e-37
-3.18822e-36
-4.5849e-38
-1.03498e-36
2.83374e-40
-2.03531e-37
9.72597e-40
-6.41847e-40
1.00958e-39
-9.83791e-40
1.15679e-41
3.34044e-41
-5.14014e-39
-2.12664e-64
-7.42931e-69
-9.21166e-62
-3.69471e-66
-1.94697e-59
-8.96087e-64
-2.7325e-57
-1.44334e-61
-2.87067e-55
-1.74162e-59
-2.41277e-53
-1.68332e-57
-1.69336e-51
-1.36071e-55
-1.02288e-49
-9.485e-54
-5.43734e-48
-5.83221e-52
-2.27301e-46
-3.03419e-50
-7.80222e-45
-1.25888e-48
-2.27871e-43
-3.93383e-47
-1.25538e-41
-1.65127e-45
-1.31893e-39
-8.27857e-44
-4.72184e-38
-3.5892e-42
-2.27312e-37
-3.88306e-41
-2.22221e-37
-7.89088e-41
-2.31483e-39
-4.44539e-41
-2.53856e-39
-2.44273e-43
-9.91132e-40
3.1904e-42
-1.50637e-41
4.37873e-42
-1.30462e-41
2.95333e-43
3.12916e-43
-5.94957e-41
-7.42931e-69
-1.18163e-74
-3.70214e-66
-6.8661e-72
-8.9979e-64
-1.94581e-69
-1.45234e-61
-3.66299e-67
-1.75615e-59
-5.16945e-65
-1.70089e-57
-5.84936e-63
-1.37773e-55
-5.54238e-61
-9.6229e-54
-4.53519e-59
-5.92865e-52
-3.27911e-57
-3.24519e-50
-2.1357e-55
-1.29141e-48
-9.93027e-54
-4.39172e-47
-4.71456e-52
-1.96258e-45
-1.80163e-50
-2.41385e-43
-8.87386e-49
-1.48185e-41
-4.60568e-47
-1.1394e-40
-2.52279e-45
-1.39046e-40
-4.36131e-44
-1.51818e-41
-1.13806e-43
-1.42237e-41
-3.78097e-44
-4.47713e-42
2.60251e-44
-2.14894e-43
6.55853e-45
-1.53738e-43
1.89652e-45
2.66009e-45
-6.08473e-43
-1.18166e-74
-6.91445e-79
-6.87811e-72
-4.7965e-76
-1.95275e-69
-1.62303e-73
-3.68265e-67
-3.64923e-71
-5.20649e-65
-6.1552e-69
-5.90173e-63
-8.33169e-67
-5.60178e-61
-9.4544e-65
-4.59164e-59
-9.27715e-63
-3.32603e-57
-8.05896e-61
-2.16941e-55
-6.31349e-59
-1.03294e-53
-4.52303e-57
-4.94542e-52
-2.27718e-55
-1.85198e-50
-9.57459e-54
-1.02429e-48
-5.49943e-52
-1.20144e-46
-3.31345e-50
-1.34206e-44
-2.39098e-48
-1.93692e-43
-6.79774e-47
-3.36202e-43
-2.70175e-46
-4.94326e-44
-1.55477e-46
-1.6159e-44
1.22919e-47
-1.19726e-45
3.21085e-47
-1.14437e-45
6.71665e-48
2.14931e-47
-5.5251e-45
-6.91446e-79
-9.09972e-84
-4.80342e-76
-7.78734e-81
-1.62784e-73
-3.24392e-78
-3.66551e-71
-8.97571e-76
-6.19186e-69
-1.8638e-73
-8.39362e-67
-3.10807e-71
-9.53837e-65
-4.34919e-69
-9.3726e-63
-5.26867e-67
-8.15279e-61
-5.65757e-65
-6.39517e-59
-5.48676e-63
-4.58752e-57
-4.87515e-61
-2.32351e-55
-3.04891e-59
-9.65789e-54
-2.11195e-57
-5.60534e-52
-1.142e-55
-6.35781e-50
-7.92001e-54
-1.17799e-47
-7.12345e-52
-2.95115e-46
-3.87829e-50
-6.9502e-46
-3.03003e-49
-9.37806e-47
-3.12926e-49
-7.83898e-47
4.25468e-50
-7.02855e-48
5.19928e-49