/*--------------------------------*- C++ -*----------------------------------*\
  =========                 |
  \\      /  F ield         | OpenFOAM: The Open Source CFD Toolbox
   \\    /   O peration     | Website:  https://openfoam.org
    \\  /    A nd           | Version:  13
     \\/     M anipulation  |
\*---------------------------------------------------------------------------*/
FoamFile
{
    format      ascii;
    class       volScalarField;
    location    "0.15";
    object      p;
}
// * * * * * * * * * * * * * * * * * * * * * * * * * * * * * * * * * * * * * //

dimensions      [1 -1 -2 0 0 0 0];

internalField   nonuniform List<scalar> 
2268
(
2501.8
2505.97
2501.22
2490.18
2475.31
2456.87
2434.27
2407.06
2375.02
2338.15
2296.94
2252.71
2208.12
2168.09
2141.08
2141.02
2189.75
2322.77
2565.9
2942.28
3408.24
3816.31
4094.21
2441.64
2445.75
2440.9
2429.85
2414.97
2396.47
2373.75
2346.37
2314.08
2276.83
2235.06
2190.01
2144.23
2102.41
2072.71
2068.47
2110.1
2222.65
2445.24
2802.47
3284.77
3757.04
4128.62
2380.18
2384.16
2379.15
2368.06
2353.15
2334.53
2311.58
2283.87
2251.07
2213.06
2170.18
2123.52
2075.34
2029.95
1994.91
1982.58
2011.92
2109.15
2310.11
2638.99
3104.8
3633.35
4130.09
2317.43
2321.24
2315.99
2304.83
2289.87
2271.06
2247.79
2219.58
2186.02
2146.9
2102.4
2053.34
2001.6
1950.92
1907.99
1883.8
1895.68
1969.53
2141.56
2442.34
2888.84
3441.48
4049.03
2253.44
2257.01
2251.47
2240.22
2225.18
2206.13
2182.44
2153.57
2119.04
2078.47
2031.85
1979.67
1923.27
1865.66
1812.38
1772.58
1761.19
1802.32
1933.01
2191.7
2612.64
3174.01
3856.82
2188.22
2191.53
2185.66
2174.28
2159.12
2139.79
2115.59
2085.93
2050.22
2007.9
1958.71
1902.73
1840.68
1774.63
1708.7
1649.63
1608.97
1607.25
1679.74
1867.4
2233.16
2794.96
3524.43
2121.81
2124.8
2118.55
2107.02
2091.72
2072.07
2047.28
2016.71
1979.63
1935.3
1883.15
1822.79
1754.23
1678.47
1597.83
1516.09
1440.54
1385.73
1379.26
1449.25
1685.19
2216.62
2963.4
2054.3
2056.81
2050.15
2038.44
2023
2002.98
1977.53
1945.94
1907.33
1860.77
1805.35
1740.15
1664.41
1577.91
1480.92
1373.94
1258.66
1138.32
1021.24
915.141
916.338
1381.41
2070.76
3.08744
3.07033
3.07258
3.11119
3.18173
3.27541
3.38102
3.48977
3.59545
3.69405
3.78333
3.86222
3.93032
3.98779
4.03482
4.07183
4.09911
4.11681
4.12567
3.0266
3.0054
3.00612
3.04584
3.11829
3.21386
3.32107
3.43102
3.53751
3.63662
3.72617
3.80519
3.87332
3.93076
3.97777
4.01472
4.04198
4.05956
4.06843
2.95964
2.93414
2.93278
2.97435
3.05024
3.14964
3.26009
3.37246
3.48058
3.58069
3.67077
3.75003
3.81821
3.8756
3.92251
3.95933
3.98643
4.004
4.01285
2.88599
2.85492
2.85072
2.89581
2.97738
3.08276
3.1982
3.31424
3.42477
3.52635
3.61721
3.6968
3.76502
3.82231
3.86905
3.90566
3.93254
3.95007
3.95895
2.80056
2.76452
2.75766
2.80927
2.89946
3.01332
3.13559
3.25654
3.37026
3.47372
3.56556
3.64553
3.71378
3.77091
3.8174
3.85369
3.88023
3.89788
3.9067
2.69495
2.65828
2.65059
2.71359
2.81619
2.94145
3.07254
3.19964
3.31727
3.42296
3.51592
3.59629
3.66448
3.72141
3.76755
3.80323
3.8298
3.84732
3.85607
2.54418
2.52706
2.52983
2.60757
2.72725
2.86733
3.00938
3.14388
3.26606
3.37425
3.46839
3.54914
3.6172
3.67377
3.71919
3.7548
3.78105
3.79837
3.80705
2.32722
2.36186
2.38352
2.48985
2.63246
2.79116
2.94647
3.08962
3.21691
3.32779
3.42311
3.50417
3.5719
3.62777
3.67292
3.70811
3.73393
3.75103
3.75959
1947.11
1948.64
1941.48
1929.48
1913.69
1893.03
1866.46
1833.12
1791.92
1741.54
1680.54
1607.12
1519.14
1414.32
1289.97
1141.68
957.355
709.275
383.368
148.213
228.392
390.542
408.985
1796.97
1797.32
1789.39
1776.98
1760.63
1738.92
1710.65
1674.74
1629.68
1573.61
1504.3
1418.57
1312.21
1180.77
1019.15
812.566
528.794
196.263
37.559
29.1412
45.886
90.0333
113.646
1643.33
1642.38
1633.68
1620.94
1604.03
1581.27
1551.36
1512.98
1464.21
1402.69
1325.43
1227.67
1103.61
949.206
754.928
487.432
166.912
23.1952
7.44958
7.9614
10.4014
19.5928
57.239
1487
1484.72
1475.39
1462.42
1445.02
1421.35
1390.08
1349.64
1297.74
1231.65
1147.55
1038.91
900.481
729.221
500.213
194.87
24.3175
6.15669
4.46465
4.49244
4.85257
5.87369
12.7096
1328.8
1325.26
1315.51
1302.44
1284.68
1260.39
1228.22
1186.4
1132.37
1063.22
973.848
856.742
709.637
520.546
251.819
33.1831
6.8045
4.4749
4.22703
4.22212
4.30894
4.33597
5.1096
1169.62
1164.96
1155.05
1142.01
1124.11
1099.56
1067.11
1024.78
969.999
899.715
807.115
686.392
535.999
322.637
64.9833
8.31083
4.82473
4.35359
4.33584
4.38695
4.55548
4.83181
4.93395
1010.28
1004.68
994.885
982.017
964.199
939.847
907.782
865.928
812.021
742.618
649.883
532.914
379.38
149.833
12.512
5.07459
4.37525
4.40237
4.43937
4.52972
4.72641
5.08665
5.17441
851.433
845.052
835.653
823.099
805.66
781.982
751.019
710.709
659.393
592.818
504.64
397.723
237.052
30.0053
5.76372
4.46711
4.35621
4.40976
4.47135
4.58565
4.76452
5.03913
5.21226
693.876
686.924
678.163
666.05
649.269
626.684
597.393
559.51
511.987
449.879
370.617
273.391
115.637
8.3303
4.80491
4.32936
4.41527
4.40493
4.46036
4.56392
4.72396
4.94731
5.20319
538.509
531.1
523.128
511.482
495.511
474.189
446.729
411.465
368.1
312.149
243.327
153.138
28.7198
5.19388
4.66108
4.46424
4.39604
4.35838
4.39122
4.47065
4.60694
4.79116
5.01932
385.12
377.224
370.138
358.963
344.02
324.3
299.127
266.437
227.516
180.246
125.937
58.511
6.68777
4.62782
4.80559
4.58747
4.33809
4.25119
4.25117
4.31306
4.42527
4.56903
4.73762
233.462
224.652
218.769
208.243
194.663
177.274
156.137
126.66
94.8928
65.3547
40.7781
16.8383
5.23988
4.65121
4.61513
4.36959
4.11989
4.02948
4.03787
4.10255
4.2021
4.3216
4.4471
92.9714
84.2418
81.1036
73.7554
64.6767
54.1852
43.6153
26.9919
16.4711
6.35688
2.27458
2.19366
2.31712
2.68257
3.54194
3.77546
3.62957
3.68012
3.75712
3.85096
3.95712
4.06783
4.16893
15.8833
12.8601
12.0435
9.94535
7.44249
4.76613
3.08995
2.79676
2.47658
2.12893
1.99109
1.85344
1.82631
1.78998
2.35881
2.72619
2.8824
3.24334
3.4261
3.57642
3.70714
3.8198
3.91038
3.17342
3.16787
3.13219
3.07734
2.99659
2.89395
2.82022
2.68335
2.44943
2.14357
1.82128
1.48477
1.32533
1.40595
1.32972
1.12477
2.182
2.80272
3.09372
3.31032
3.46841
3.58808
3.67497
3.04781
3.03641
3.00896
2.96649
2.90635
2.83064
2.74177
2.61059
2.40396
2.08282
1.62885
1.0826
0.766457
0.820779
0.456029
0.570565
1.81369
2.46582
2.82902
3.08489
3.25666
3.37946
3.46347
2.93157
2.92037
2.8996
2.86726
2.82236
2.76366
2.68525
2.56847
2.38314
2.05154
1.51678
0.774728
0.334943
0.362805
0.178727
0.690738
1.72809
2.30438
2.66723
2.91599
3.08122
3.1978
3.27538
2.8245
2.81656
2.80132
2.77793
2.74565
2.70243
2.6423
2.55279
2.40461
2.10757
1.57495
0.843061
0.33915
0.308296
0.546089
1.13409
1.87151
2.2972
2.59292
2.79862
2.94051
3.04151
3.10839
2.72556
2.7204
2.7101
2.69449
2.67307
2.64436
2.6047
2.54798
2.45228
2.24363
1.85889
1.3788
1.04603
0.975707
1.19303
1.63261
2.0885
2.35703
2.56383
2.71464
2.8248
2.90492
2.95845
2.63137
2.62809
2.6219
2.61262
2.60006
2.58342
2.56104
2.53096
2.48156
2.37216
2.16722
1.91588
1.73008
1.71369
1.80464
2.0361
2.25734
2.40812
2.53981
2.64256
2.72176
2.78083
2.82073
2.53872
2.53705
2.53398
2.5295
2.52348
2.51558
2.50492
2.4909
2.46878
2.42059
2.32726
2.20711
2.12185
2.11355
2.15818
2.24627
2.33905
2.42098
2.5009
2.56786
2.62182
2.66294
2.69074
2.44579
2.44536
2.44452
2.44335
2.4418
2.43963
2.43626
2.43116
2.4222
2.40247
2.36447
2.3132
2.27142
2.2576
2.27346
2.30607
2.34837
2.39465
2.44233
2.48469
2.51995
2.54709
2.56506
2.35087
2.35122
2.35184
2.35277
2.35396
2.35522
2.35607
2.35593
2.35328
2.34458
2.32659
2.30196
2.27972
2.26727
2.26796
2.28506
2.30991
2.33777
2.36617
2.39229
2.41431
2.43107
2.44148
2.25265
2.25338
2.25484
2.25697
2.2597
2.26281
2.2659
2.26846
2.26937
2.26651
2.25839
2.24662
2.2351
2.22696
2.22493
2.2314
2.2443
2.26001
2.27644
2.29183
2.30466
2.31392
2.31873
2.15043
2.15132
2.15318
2.1559
2.15934
2.1633
2.16741
2.17121
2.17388
2.17409
2.17095
2.16522
2.15892
2.154
2.15223
2.15476
2.16049
2.16826
2.17684
2.18497
2.19143
2.19538
2.19615
2.04404
2.04499
2.04697
2.04987
2.05353
2.05774
2.06216
2.06638
2.06975
2.07146
2.07099
2.06858
2.0652
2.06216
2.06059
2.06099
2.06315
2.06631
2.0699
2.07314
2.07521
2.07547
2.0734
1.93379
1.93476
1.9367
1.93954
1.94313
1.94724
1.95159
1.95581
1.9594
1.96182
1.96272
1.96214
1.96053
1.9586
1.95709
1.95636
1.95647
1.95688
1.95735
1.95741
1.95655
1.9543
1.9503
1.82011
1.82105
1.82287
1.82553
1.82889
1.83273
1.83682
1.84082
1.84434
1.84699
1.84851
1.84885
1.84822
1.84701
1.84563
1.84437
1.84345
1.84201
1.84055
1.83862
1.83588
1.83202
1.82679
1.7034
1.70427
1.70594
1.70837
1.71143
1.71495
1.71869
1.72237
1.72569
1.72836
1.73013
1.73093
1.73082
1.73001
1.72872
1.72708
1.72496
1.72306
1.72058
1.71748
1.71361
1.70877
1.70284
1.58399
1.58478
1.5863
1.5885
1.59126
1.59444
1.59782
1.60117
1.60424
1.60679
1.60863
1.60963
1.60982
1.60925
1.60806
1.60633
1.60409
1.6015
1.59835
1.59458
1.59008
1.58473
1.57847
1.46219
1.46289
1.46428
1.46626
1.46876
1.47162
1.47467
1.47771
1.48054
1.48295
1.48475
1.48585
1.48619
1.4858
1.48472
1.48301
1.48071
1.47787
1.47441
1.47033
1.46556
1.46003
1.45373
1.33828
1.33891
1.34018
1.34199
1.34425
1.34685
1.34962
1.35241
1.35502
1.35728
1.35904
1.36017
1.36062
1.36037
1.35942
1.35781
1.35555
1.35266
1.34917
1.34504
1.34026
1.33479
1.32865
1.21256
1.21314
1.21431
1.21597
1.21805
1.22043
1.22298
1.22556
1.22801
1.23016
1.23187
1.23304
1.23358
1.23346
1.23267
1.23121
1.22909
1.22633
1.22295
1.21895
1.21433
1.2091
1.20327
1.08531
1.08585
1.08693
1.08849
1.09041
1.09263
1.09502
1.09745
1.09977
1.10184
1.10354
1.10475
1.1054
1.10543
1.10483
1.10357
1.10166
1.09913
1.09598
1.09223
1.08791
1.08303
1.07763
0.956761
0.957266
0.958291
0.959749
0.961568
0.963672
0.965949
0.968273
0.970517
0.972554
0.974267
0.975554
0.976332
0.976542
0.976146
0.97513
0.973494
0.971249
0.968412
0.965019
0.961089
0.956653
0.951754
0.827117
0.827604
0.828576
0.829967
0.831715
0.833744
0.835947
0.838213
0.840426
0.842471
0.844239
0.845629
0.84656
0.846969
0.846815
0.846076
0.84475
0.842846
0.840386
0.837402
0.833925
0.829993
0.825653
0.696609
0.697081
0.698012
0.699356
0.701058
0.703037
0.705197
0.707438
0.709655
0.711742
0.713592
0.715111
0.716217
0.716847
0.716958
0.716524
0.715539
0.714013
0.71197
0.709439
0.706461
0.703076
0.699334
0.565372
0.565829
0.566737
0.568057
0.569733
0.571687
0.573833
0.576079
0.57833
0.580482
0.582436
0.584102
0.5854
0.586268
0.586661
0.586552
0.585932
0.584812
0.583212
0.581166
0.578717
0.575909
0.572794
0.433365
0.4338
0.434707
0.436024
0.437702
0.439665
0.441835
0.444128
0.446451
0.448704
0.450795
0.452635
0.45415
0.455277
0.455972
0.456207
0.455972
0.455276
0.45414
0.452599
0.450698
0.448488
0.446021
0.300664
0.30107
0.301983
0.303305
0.304998
0.306994
0.309219
0.311591
0.314017
0.316406
0.318665
0.320712
0.322473
0.323886
0.324907
0.325508
0.325677
0.325421
0.324762
0.323734
0.322391
0.320793
0.318995
0.167517
0.167885
0.168785
0.170107
0.17182
0.173857
0.176146
0.178604
0.181145
0.18368
0.186121
0.188389
0.190409
0.192123
0.193485
0.194465
0.19505
0.195244
0.195066
0.194553
0.193768
0.192796
0.191692
0.0336375
0.0338457
0.0347318
0.0360783
0.0378393
0.0399464
0.0423275
0.0449042
0.0475934
0.05031
0.0529705
0.0554957
0.0578148
0.0598672
0.0616059
0.0629985
0.0640281
0.0646932
0.0650075
0.0649976
0.0647518
0.0644207
0.0640447
1.88949
2.23634
1.62291
1.27383
-1.56586
3.095
2.90004
2.1064
17.5414
4.33571
2.22613
1.1974
17.9508
8.73271
-0.139011
-1.80182
6.74954
5.86495
-2.38963
-3.94145
4.10637
1.82107
-3.51795
-5.54825
4.9479
4.4892
2.26598
-2.87819
5.39391
5.57447
5.62359
5.35289
5.49496
5.76917
6.11
6.31015
5.22947
5.37341
5.49511
5.5403
4.85476
4.91726
4.95273
4.9448
4.51859
4.55155
4.56667
4.55726
4.21874
4.23959
4.24735
4.23931
3.95102
3.96752
3.97365
3.96837
3.71247
3.72801
3.73483
3.73273
3.49932
3.51465
3.52241
3.52284
3.30869
3.32332
3.33145
3.33347
3.13745
3.15043
3.15799
3.16055
2.98192
2.99247
2.99867
3.00089
2.83818
2.84593
2.85034
2.85168
2.70255
2.70757
2.71008
2.71028
2.57206
2.57469
2.57547
2.57453
2.44467
2.44536
2.44468
2.44275
2.31903
2.31823
2.31643
2.3137
2.19435
2.19246
2.18983
2.18649
2.07011
2.06746
2.06425
2.0605
1.94603
1.94288
1.9393
1.9353
1.82191
1.81847
1.81468
1.81057
1.69765
1.69407
1.69023
1.68611
1.5732
1.56961
1.5658
1.56178
1.44853
1.44503
1.44135
1.43749
1.32365
1.3203
1.31681
1.31317
1.19857
1.19543
1.19218
1.1888
1.07329
1.07041
1.06742
1.06433
0.947833
0.945227
0.942537
0.939761
0.822184
0.819881
0.817506
0.815059
0.696343
0.694358
0.692313
0.690209
0.5703
0.568646
0.566943
0.565194
0.444042
0.442731
0.441381
0.439997
0.31755
0.316593
0.315609
0.314601
0.190803
0.190214
0.189611
0.188992
0.0637405
0.0635383
0.063331
0.0631186
1.75961
1.99015
2.10111
2.27889
2.47296
2.66894
2.84946
3.00804
3.14401
3.25916
3.35612
3.4375
3.50389
3.55923
3.60348
3.63779
3.66276
3.67959
3.68784
1.22923
1.15367
1.48273
1.8804
2.22172
2.50126
2.72866
2.91142
3.05948
3.17932
3.27664
3.35698
3.42218
3.47507
3.51717
3.54978
3.57394
3.58939
3.59706
-0.264911
-0.245784
0.560689
1.40364
1.97771
2.35732
2.63572
2.83757
2.99379
3.11579
3.21181
3.28864
3.35024
3.3996
3.43857
3.46885
3.4911
3.50542
3.51247
-2.8586
-2.21931
-0.46537
0.996092
1.83193
2.26538
2.58413
2.80028
2.95574
3.07215
3.16175
3.23213
3.28798
3.33238
3.36707
3.39488
3.41454
3.42729
3.43357
-4.58326
-3.34055
-0.965818
0.890432
1.82907
2.3053
2.60718
2.80686
2.94599
3.0482
3.12604
3.18671
3.2346
3.27284
3.30421
3.32684
3.34347
3.35434
3.35971
-4.53659
-2.81005
-0.551354
1.2108
2.07001
2.46081
2.69588
2.85267
2.96142
3.04139
3.10268
3.15078
3.18856
3.2207
3.24498
3.26344
3.27692
3.28576
3.29013
-2.81003
-0.905509
0.84823
1.9614
2.47415
2.69641
2.83031
2.92532
2.99414
3.04662
3.08827
3.12217
3.15072
3.17241
3.19007
3.20383
3.21397
3.22065
3.22396
4.53357
2.66146
2.64818
2.84164
2.91642
2.94835
2.97699
3.00676
3.03349
3.05717
3.07834
3.09703
3.11326
3.12673
3.13791
3.14686
3.15358
3.15806
3.16031
5.86706
4.57446
3.74884
3.38782
3.24078
3.15207
3.1029
3.07915
3.06901
3.06639
3.06802
3.07203
3.07707
3.08224
3.08711
3.09134
3.09471
3.09704
3.09824
5.3595
4.6489
4.04591
3.66539
3.43508
3.28681
3.19137
3.13089
3.0926
3.06848
3.05359
3.04476
3.03981
3.03731
3.0363
3.03613
3.03635
3.03666
3.03686
4.83518
4.4637
4.06969
3.75186
3.52043
3.35516
3.23838
3.15672
3.09974
3.05995
3.03221
3.01293
2.9996
2.99045
2.98426
2.98017
2.97756
2.97604
2.97535
4.49304
4.26179
3.98569
3.73388
3.52854
3.36856
3.24705
3.15619
3.08877
3.0389
3.00208
2.97496
2.95503
2.94048
2.92997
2.92255
2.91752
2.91442
2.91295
4.19698
4.04575
3.85152
3.65724
3.4845
3.34009
3.22361
3.1317
3.06014
3.00487
2.96241
2.92993
2.90521
2.88655
2.87266
2.86255
2.85555
2.85114
2.84902
3.93985
3.83758
3.69834
3.54893
3.40705
3.28141
3.1748
3.08683
3.01554
2.95847
2.91319
2.87753
2.84967
2.82814
2.81176
2.79964
2.79111
2.78568
2.78305
3.71433
3.64256
3.54018
3.42453
3.30897
3.20172
3.10679
3.02541
2.95718
2.90086
2.85493
2.81788
2.7883
2.76499
2.74697
2.73345
2.72382
2.71765
2.71464
3.51161
3.45998
3.38312
3.29267
3.19856
3.10783
3.02463
2.95097
2.88737
2.83347
2.78847
2.75139
2.72122
2.69707
2.67814
2.66377
2.65344
2.64677
2.64351
3.32677
3.28869
3.22981
3.15814
3.08114
3.00457
2.93229
2.86652
2.80828
2.75779
2.71476
2.67863
2.64877
2.62452
2.60527
2.59052
2.57984
2.5729
2.5695
3.15677
3.12716
3.08115
3.02352
2.96003
2.89531
2.83273
2.77448
2.72179
2.6752
2.63476
2.60027
2.57135
2.54757
2.5285
2.51375
2.50299
2.49597
2.49251
2.998
2.97472
2.93728
2.89011
2.83725
2.78228
2.72812
2.67676
2.62945
2.58691
2.54941
2.51697
2.48943
2.46653
2.44799
2.43355
2.42294
2.41599
2.41256
2.84866
2.82909
2.79805
2.75859
2.71401
2.66696
2.62002
2.57482
2.53254
2.49397
2.45953
2.42936
2.40347
2.38174
2.364
2.35007
2.3398
2.33303
2.32968
2.70654
2.68919
2.66263
2.62911
2.59118
2.55022
2.50951
2.46973
2.43203
2.39724
2.36583
2.33802
2.31393
2.29353
2.27676
2.26352
2.25369
2.24721
2.24399
2.56984
2.55381
2.53046
2.5014
2.46848
2.43325
2.39746
2.36236
2.32868
2.29742
2.26892
2.24346
2.22122
2.20225
2.18655
2.17409
2.16481
2.15865
2.1556
2.43712
2.4219
2.40093
2.37533
2.34651
2.31574
2.28434
2.25338
2.22301
2.19508
2.16932
2.14613
2.12572
2.10821
2.09363
2.082
2.07332
2.06754
2.06467
2.30729
2.29264
2.27349
2.25065
2.22516
2.19805
2.17029
2.14272
2.11593
2.09075
2.06745
2.0464
2.02776
2.01169
1.99825
1.98749
1.97942
1.97404
1.97138
2.1795
2.16534
2.14767
2.12707
2.10435
2.08028
2.05563
2.0311
2.00726
1.98467
1.9637
1.94463
1.92764
1.91297
1.90065
1.89074
1.88331
1.87832
1.87588
2.05314
2.03947
2.02307
2.00436
1.98396
1.96248
1.94052
1.91865
1.89738
1.87713
1.85826
1.84104
1.82566
1.81231
1.80104
1.79197
1.78516
1.78057
1.77836
1.92776
1.91462
1.89935
1.88229
1.86389
1.84464
1.82502
1.80549
1.78648
1.76834
1.75139
1.73588
1.72198
1.70987
1.69965
1.69139
1.68517
1.68095
1.67896
1.80303
1.79047
1.77627
1.76067
1.74403
1.72674
1.70917
1.69172
1.67472
1.65848
1.64328
1.62933
1.61681
1.60588
1.59662
1.58914
1.58349
1.57967
1.57784
1.67872
1.66681
1.65363
1.63936
1.6243
1.60875
1.59301
1.5774
1.56221
1.54769
1.53408
1.52157
1.51032
1.50048
1.49214
1.48539
1.48028
1.47683
1.47516
1.55465
1.54345
1.53126
1.51824
1.50462
1.49064
1.47655
1.4626
1.44903
1.43607
1.42391
1.41273
1.40266
1.39384
1.38635
1.38028
1.37568
1.37259
1.37107
1.43071
1.42027
1.40907
1.39723
1.38493
1.37238
1.35979
1.34735
1.33526
1.32372
1.31289
1.30293
1.29395
1.28608
1.27939
1.27397
1.26985
1.26708
1.26571
1.30682
1.29719
1.28696
1.27624
1.26519
1.25396
1.24274
1.23168
1.22095
1.21072
1.20112
1.19228
1.18432
1.17733
1.17139
1.16656
1.1629
1.16044
1.15921
1.18293
1.17413
1.16486
1.15523
1.14535
1.13536
1.12541
1.11563
1.10616
1.09713
1.08867
1.08088
1.07386
1.0677
1.06246
1.0582
1.05496
1.05279
1.05169
1.05899
1.05105
1.04274
1.03415
1.02539
1.01658
1.00782
0.999227
0.990928
0.983026
0.975625
0.968815
0.962681
0.957292
0.95271
0.948983
0.946153
0.944252
0.943277
0.934972
0.927901
0.920546
0.912982
0.905302
0.897598
0.889966
0.882504
0.875306
0.868463
0.862059
0.856171
0.850867
0.846209
0.842247
0.839025
0.836577
0.834933
0.834079
0.810848
0.804663
0.798258
0.7917
0.785066
0.778433
0.771881
0.765491
0.759338
0.753498
0.748039
0.743023
0.738507
0.73454
0.731167
0.728422
0.726337
0.724939
0.7242
0.686596
0.681309
0.675855
0.67029
0.66468
0.659089
0.65358
0.64822
0.643069
0.638187
0.633629
0.629444
0.625678
0.622372
0.619559
0.617272
0.615533
0.61437
0.613742
0.562194
0.557819
0.55332
0.548745
0.544146
0.539576
0.535084
0.530723
0.526541
0.522582
0.518891
0.515504
0.512459
0.509785
0.507512
0.505663
0.504257
0.50332
0.502799
0.437627
0.43418
0.430646
0.427062
0.423469
0.419907
0.416416
0.413033
0.409794
0.406734
0.403883
0.40127
0.398921
0.39686
0.395108
0.393683
0.3926
0.391881
0.391467
0.312878
0.310379
0.307823
0.305238
0.302653
0.300097
0.297597
0.29518
0.29287
0.29069
0.288661
0.286804
0.285135
0.283671
0.282427
0.281416
0.280646
0.280142
0.279833
0.187936
0.186409
0.18485
0.183279
0.181711
0.180165
0.178656
0.1772
0.175811
0.174501
0.173285
0.172171
0.171172
0.170295
0.169551
0.168946
0.168485
0.16819
0.16799
0.062755
0.0622311
0.0616974
0.0611607
0.0606271
0.0601025
0.0595922
0.0591011
0.0586338
0.0581945
0.057787
0.0574147
0.0570808
0.0567884
0.0565402
0.0563387
0.0561843
0.0560897
0.0560168
)
;

boundaryField
{
    leftWall
    {
        type            calculated;
        value           nonuniform List<scalar> 
50
(
2501.8
2441.64
2380.18
2317.43
2253.44
2188.22
2121.81
2054.3
1947.11
1796.97
1643.33
1487
1328.8
1169.62
1010.28
851.433
693.876
538.509
385.12
233.462
92.9714
15.8833
3.17342
3.04781
2.93157
2.8245
2.72556
2.63137
2.53872
2.44579
2.35087
2.25265
2.15043
2.04404
1.93379
1.82011
1.7034
1.58399
1.46219
1.33828
1.21256
1.08531
0.956761
0.827117
0.696609
0.565372
0.433365
0.300664
0.167517
0.0336375
)
;
    }
    rightWall
    {
        type            calculated;
        value           nonuniform List<scalar> 
50
(
4.12567
4.06843
4.01285
3.95895
3.9067
3.85607
3.80705
3.75959
3.68784
3.59706
3.51247
3.43357
3.35971
3.29013
3.22396
3.16031
3.09824
3.03686
2.97535
2.91295
2.84902
2.78305
2.71464
2.64351
2.5695
2.49251
2.41256
2.32968
2.24399
2.1556
2.06467
1.97138
1.87588
1.77836
1.67896
1.57784
1.47516
1.37107
1.26571
1.15921
1.05169
0.943277
0.834079
0.7242
0.613742
0.502799
0.391467
0.279833
0.16799
0.0560168
)
;
    }
    lowerWall
    {
        type            calculated;
        value           nonuniform List<scalar> 
62
(
2531.23
2535.4
2530.65
2519.61
2504.74
2486.3
2463.69
2436.49
2404.45
2367.58
2326.37
2282.14
2237.55
2197.52
2170.5
2170.44
2219.18
2352.2
2595.33
2971.71
3437.67
3844.98
4115.29
4094.21
4128.62
4130.09
4049.03
3856.82
3524.43
2963.4
2070.76
24.9055
2.29894
1.68551
1.33643
3.08744
3.0266
2.95964
2.88599
2.80056
2.69495
2.54418
2.32722
3.11687
3.09976
3.10201
3.14062
3.21116
3.30484
3.41045
3.5192
3.62487
3.72348
3.81276
3.89165
3.95975
4.01722
4.06425
4.10126
4.12854
4.14624
4.1551
)
;
    }
    atmosphere
    {
        type            calculated;
        value           nonuniform List<scalar> 
46
(
-0.0337017
-0.0338004
-0.0328704
-0.0314786
-0.0296694
-0.027505
-0.0250545
-0.0223942
-0.0196051
-0.0167709
-0.0139742
-0.0112935
-0.00879972
-0.00655348
-0.00460286
-0.00298201
-0.00171084
-0.000795688
-0.000231461
-5.88611e-06
0
0
0
0
0
0
0
0
0
0
0
0
0
0
0
0
0
0
0
0
0
0
0
0
0
0
)
;
    }
    defaultFaces
    {
        type            empty;
    }
}


// ************************************************************************* //
