/*--------------------------------*- C++ -*----------------------------------*\
  =========                 |
  \\      /  F ield         | OpenFOAM: The Open Source CFD Toolbox
   \\    /   O peration     | Website:  https://openfoam.org
    \\  /    A nd           | Version:  13
     \\/     M anipulation  |
\*---------------------------------------------------------------------------*/
FoamFile
{
    format      ascii;
    class       volScalarField;
    location    "0.15";
    object      p_rgh;
}
// * * * * * * * * * * * * * * * * * * * * * * * * * * * * * * * * * * * * * //

dimensions      [1 -1 -2 0 0 0 0];

internalField   nonuniform List<scalar> 
2268
(
2531.23
2535.4
2530.65
2519.61
2504.74
2486.3
2463.69
2436.49
2404.45
2367.58
2326.37
2282.14
2237.55
2197.52
2170.5
2170.44
2219.18
2352.2
2595.33
2971.71
3437.67
3844.98
4115.29
2529.93
2534.04
2529.19
2518.14
2503.26
2484.76
2462.04
2434.66
2402.37
2365.12
2323.35
2278.3
2232.52
2190.7
2161
2156.76
2198.39
2310.93
2533.53
2890.75
3373.05
3845.33
4194.05
2527.33
2531.31
2526.29
2515.21
2500.3
2481.67
2458.73
2431.01
2398.21
2360.21
2317.33
2270.67
2222.49
2177.09
2142.06
2129.73
2159.06
2256.3
2457.25
2786.14
3251.94
3780.49
4240.86
2523.44
2527.24
2521.99
2510.84
2495.88
2477.07
2453.8
2425.58
2392.03
2352.91
2308.41
2259.35
2207.61
2156.92
2113.99
2089.8
2101.69
2175.53
2347.56
2648.34
3094.83
3647.48
4219.34
2518.3
2521.88
2516.34
2505.09
2490.04
2471
2447.3
2418.44
2383.9
2343.34
2296.72
2244.53
2188.14
2130.52
2077.25
2037.44
2026.05
2067.18
2197.87
2456.56
2877.48
3438.84
4117.72
2511.94
2515.26
2509.38
2498.01
2482.84
2463.51
2439.31
2409.66
2373.94
2331.62
2282.43
2226.45
2164.4
2098.35
2032.43
1973.35
1932.7
1930.98
2003.46
2190.81
2556.79
3118.57
3848.03
2504.39
2507.39
2501.13
2489.6
2474.3
2454.65
2429.86
2399.29
2362.21
2317.88
2265.73
2205.38
2136.81
2061.05
1980.41
1898.67
1823.12
1768.32
1761.85
1827.15
2064.99
2598.5
3344.54
2495.74
2498.25
2491.59
2479.88
2464.44
2444.42
2418.97
2387.38
2348.77
2302.21
2246.79
2181.59
2105.85
2019.35
1922.36
1815.38
1700.1
1579.75
1462.66
1328.32
1272.24
1805.64
2508.07
3.11687
3.09976
3.10201
3.14062
3.21116
3.30484
3.41045
3.5192
3.62487
3.72348
3.81276
3.89165
3.95975
4.01722
4.06425
4.10126
4.12854
4.14624
4.1551
3.11489
3.09369
3.09441
3.13413
3.20658
3.30215
3.40935
3.51931
3.6258
3.72491
3.81446
3.89348
3.9616
4.01905
4.06605
4.10301
4.13027
4.14785
4.15672
3.10679
3.08129
3.07992
3.1215
3.19739
3.29679
3.40724
3.51961
3.62772
3.72783
3.81792
3.89718
3.96535
4.02275
4.06965
4.10647
4.13358
4.15115
4.15999
3.092
3.06092
3.05672
3.10181
3.18339
3.28877
3.40421
3.52024
3.63078
3.73235
3.82322
3.90281
3.97103
4.02831
4.07506
4.11167
4.13855
4.15608
4.16496
3.06542
3.02939
3.02253
3.07414
3.16432
3.27818
3.40046
3.5214
3.63513
3.73858
3.83042
3.9104
3.97864
4.03577
4.08227
4.11856
4.14509
4.16274
4.17157
3.01867
2.98201
2.97432
3.03731
3.13992
3.26517
3.39627
3.52337
3.64099
3.74668
3.83964
3.92001
3.98821
4.04513
4.09127
4.12696
4.15353
4.17104
4.17979
2.92676
2.90964
2.91241
2.99016
3.10983
3.24991
3.39196
3.52646
3.64864
3.75683
3.85098
3.93173
3.99978
4.05635
4.10177
4.13738
4.16364
4.18096
4.18963
2.76866
2.8033
2.82496
2.93129
3.0739
3.2326
3.38791
3.53106
3.65835
3.76923
3.86455
3.94561
4.01334
4.06921
4.11437
4.14955
4.17537
4.19247
4.20103
2480.57
2482.11
2474.94
2462.94
2447.16
2426.5
2399.92
2366.59
2325.39
2275.01
2214.01
2140.58
2052.61
1947.79
1823.43
1675.14
1490.8
1242.46
872.812
442.918
288.954
540.089
915.491
2455.63
2455.98
2448.05
2435.65
2419.29
2397.58
2369.31
2333.4
2288.34
2232.27
2162.96
2077.23
1970.87
1839.43
1677.81
1471.21
1186.86
720.867
182.046
33.6461
49.9102
99.2373
688.012
2427.19
2426.23
2417.53
2404.8
2387.88
2365.12
2335.22
2296.84
2248.07
2186.55
2109.28
2011.52
1887.47
1733.06
1538.78
1271.02
770.551
124.807
10.6655
9.30874
12.0873
23.6126
425.901
2396.05
2393.77
2384.44
2371.47
2354.07
2330.4
2299.13
2258.69
2206.79
2140.71
2056.6
1947.96
1809.53
1638.27
1409.2
997.807
182.97
9.90277
5.69988
5.48524
5.99534
7.89207
29.1279
2363.05
2359.51
2349.76
2336.68
2318.93
2294.63
2262.46
2220.64
2166.61
2097.47
2008.09
1890.99
1743.88
1554.78
1285.32
368.745
11.6481
5.87682
5.31023
5.27235
5.39056
5.62123
7.6305
2329.06
2324.4
2314.49
2301.45
2283.55
2259
2226.55
2184.22
2129.44
2059.15
1966.55
1845.83
1695.43
1481.9
767.291
30.4495
6.44603
5.56046
5.50158
5.54905
5.7261
6.06009
6.48507
2294.91
2289.31
2279.52
2266.65
2248.83
2224.48
2192.42
2150.56
2096.66
2027.25
1934.52
1817.54
1663.99
1390.24
225.573
7.56209
5.76799
5.69333
5.72474
5.81481
6.01329
6.38298
6.56721
2261.26
2254.88
2245.48
2232.93
2215.49
2191.81
2160.85
2120.54
2069.22
2002.64
1914.46
1807.52
1646.62
683.182
11.7091
6.06299
5.84892
5.82019
5.88127
5.99555
6.17475
6.45445
6.64236
2228.9
2221.95
2213.18
2201.07
2184.29
2161.7
2132.41
2094.52
2046.98
1984.84
1905.49
1808.13
1647.05
221.174
6.86529
5.92397
5.95578
5.9401
5.99541
6.09896
6.25905
6.48346
6.74257
2198.71
2191.3
2183.32
2171.67
2155.69
2134.35
2106.86
2071.54
2028.04
1971.78
1902.52
1810.46
1118.39
56.4472
6.81633
6.27413
6.05641
6.01867
6.05145
6.13087
6.26716
6.4515
6.6802
2170.38
2162.38
2155.3
2144.07
2129.02
2109.12
2083.67
2050.45
2010.28
1959.92
1890.21
1697.99
574.462
34.6748
6.68613
6.40278
6.12367
6.03675
6.03659
6.09847
6.21068
6.35445
6.52312
2142.27
2132.56
2126.61
2115.48
2100.86
2081.84
2053.36
1978.81
1820.3
1500.57
1008.68
481.71
99.7177
61.6824
10.6344
6.28625
6.03154
5.94013
5.94848
6.01316
6.11271
6.23221
6.35772
1918.3
1823.89
1798.13
1713.82
1586.2
1405.02
1151.38
804.231
473.532
167.813
4.31151
4.23228
4.35811
42.4615
26.7927
5.89823
5.66642
5.71594
5.79293
5.88676
5.99292
6.10363
6.20473
450.322
343.07
315.926
243.642
159.285
72.9931
5.25095
4.95775
4.63758
4.28997
4.15277
4.01564
3.9903
4.23604
27.014
8.85126
5.04532
5.40435
5.5871
5.73741
5.86814
5.9808
6.07137
5.45961
5.45406
5.41838
5.36354
5.28278
5.18014
5.10641
4.96954
4.73562
4.42976
4.10752
3.77217
3.61596
3.706
27.0524
9.0631
4.48281
5.08945
5.37991
5.59651
5.7546
5.87427
5.96116
5.45919
5.44779
5.42035
5.37788
5.31774
5.24202
5.15316
5.02197
4.81535
4.49438
4.05284
3.50945
3.20183
3.25309
14.3401
6.95348
4.22515
4.87722
5.2404
5.49628
5.66804
5.79085
5.87485
5.46815
5.45695
5.43618
5.40384
5.35894
5.30024
5.22183
5.10506
4.91981
4.5899
4.09108
4.36312
4.71693
4.43121
6.40013
3.85339
4.26468
4.84096
5.20381
5.45257
5.6178
5.73437
5.81195
5.48628
5.47833
5.4631
5.43971
5.40742
5.3642
5.30408
5.21457
5.06652
4.7716
4.2729
5.57767
6.12296
6.0997
5.2791
3.79608
4.53328
4.95897
5.25469
5.46039
5.60228
5.70328
5.77017
5.51253
5.50736
5.49707
5.48145
5.46004
5.43133
5.39167
5.33495
5.23928
5.03177
4.65026
5.05784
6.77807
5.04097
3.9823
4.4197
4.87547
5.144
5.3508
5.50161
5.61177
5.69189
5.74542
5.54353
5.54025
5.53406
5.52479
5.51222
5.49559
5.47321
5.44312
5.3939
5.28603
5.08065
4.82805
4.64225
4.66518
4.71696
4.94828
5.1695
5.32028
5.45198
5.55472
5.63393
5.693
5.7329
5.57608
5.5744
5.57134
5.56685
5.56084
5.55294
5.54228
5.52826
5.50614
5.45795
5.36462
5.24447
5.15921
5.15092
5.19554
5.28363
5.37641
5.45833
5.53826
5.60521
5.65918
5.7003
5.7281
5.60835
5.60792
5.60707
5.60591
5.60435
5.60219
5.59881
5.59371
5.58475
5.56502
5.52702
5.47575
5.43398
5.42016
5.43601
5.46862
5.51093
5.55721
5.60488
5.64724
5.68251
5.70964
5.72761
5.63862
5.63897
5.63958
5.64052
5.64171
5.64297
5.64382
5.64368
5.64103
5.63232
5.61434
5.58971
5.56747
5.55502
5.5557
5.57281
5.59766
5.62551
5.65392
5.68003
5.70206
5.71881
5.72922
5.66559
5.66632
5.66778
5.66992
5.67264
5.67575
5.67884
5.6814
5.68231
5.67945
5.67133
5.65956
5.64805
5.6399
5.63787
5.64434
5.65724
5.67295
5.68938
5.70477
5.7176
5.72687
5.73167
5.68857
5.68946
5.69132
5.69403
5.69748
5.70144
5.70555
5.70935
5.71201
5.71223
5.70909
5.70336
5.69706
5.69213
5.69037
5.6929
5.69863
5.70639
5.71498
5.7231
5.72956
5.73352
5.73429
5.70737
5.70832
5.7103
5.7132
5.71686
5.72107
5.72549
5.72971
5.73308
5.73479
5.73432
5.73191
5.72853
5.72549
5.72392
5.72432
5.72648
5.72964
5.73323
5.73647
5.73854
5.7388
5.73673
5.72231
5.72328
5.72522
5.72807
5.73165
5.73576
5.74012
5.74433
5.74792
5.75034
5.75124
5.75067
5.74905
5.74713
5.74561
5.74488
5.745
5.7454
5.74587
5.74594
5.74508
5.74283
5.73883
5.73383
5.73477
5.73659
5.73925
5.74261
5.74645
5.75054
5.75454
5.75806
5.76071
5.76223
5.76257
5.76194
5.76073
5.75935
5.75809
5.75717
5.75573
5.75427
5.75234
5.7496
5.74574
5.74051
5.74231
5.74319
5.74486
5.74729
5.75035
5.75386
5.7576
5.76129
5.76461
5.76727
5.76905
5.76984
5.76973
5.76892
5.76764
5.76599
5.76387
5.76198
5.75949
5.7564
5.75253
5.74769
5.74175
5.7481
5.74889
5.75041
5.75261
5.75537
5.75854
5.76192
5.76528
5.76835
5.7709
5.77273
5.77374
5.77392
5.77336
5.77217
5.77044
5.7682
5.76561
5.76246
5.75869
5.75419
5.74884
5.74258
5.75149
5.7522
5.75358
5.75557
5.75806
5.76092
5.76397
5.76702
5.76985
5.77225
5.77406
5.77515
5.77549
5.7751
5.77402
5.77231
5.77001
5.76717
5.76372
5.75963
5.75486
5.74934
5.74303
5.75278
5.75341
5.75468
5.75649
5.75875
5.76134
5.76412
5.7669
5.76952
5.77178
5.77354
5.77467
5.77512
5.77487
5.77392
5.7723
5.77005
5.76716
5.76367
5.75954
5.75475
5.74929
5.74315
5.75226
5.75283
5.754
5.75567
5.75774
5.76012
5.76267
5.76526
5.7677
5.76985
5.77156
5.77273
5.77327
5.77316
5.77236
5.7709
5.76878
5.76602
5.76264
5.75864
5.75402
5.74879
5.74296
5.7502
5.75073
5.75182
5.75337
5.7553
5.75751
5.75991
5.76234
5.76465
5.76673
5.76842
5.76964
5.77029
5.77032
5.76971
5.76845
5.76655
5.76401
5.76086
5.75712
5.7528
5.74792
5.74252
5.74684
5.74735
5.74837
5.74983
5.75165
5.75375
5.75603
5.75835
5.7606
5.76263
5.76435
5.76564
5.76641
5.76662
5.76623
5.76521
5.76358
5.76133
5.75849
5.7551
5.75117
5.74673
5.74183
5.74239
5.74288
5.74385
5.74524
5.74699
5.74902
5.75122
5.75349
5.7557
5.75775
5.75951
5.7609
5.76184
5.76224
5.76209
5.76135
5.76003
5.75812
5.75566
5.75268
5.7492
5.74527
5.74093
5.73708
5.73755
5.73848
5.73983
5.74153
5.74351
5.74567
5.74791
5.75013
5.75221
5.75406
5.75558
5.75669
5.75732
5.75743
5.75699
5.75601
5.75448
5.75244
5.74991
5.74693
5.74355
5.7398
5.73104
5.73149
5.7324
5.73372
5.7354
5.73735
5.7395
5.74174
5.74399
5.74615
5.7481
5.74977
5.75106
5.75193
5.75233
5.75222
5.7516
5.75048
5.74888
5.74683
5.74438
5.74157
5.73846
5.72422
5.72466
5.72557
5.72688
5.72856
5.73052
5.73269
5.73499
5.73731
5.73956
5.74165
5.74349
5.74501
5.74614
5.74683
5.74707
5.74683
5.74614
5.745
5.74346
5.74156
5.73935
5.73688
5.71672
5.71712
5.71804
5.71936
5.72105
5.72305
5.72527
5.72764
5.73007
5.73246
5.73472
5.73677
5.73853
5.73994
5.74096
5.74156
5.74173
5.74147
5.74082
5.73979
5.73844
5.73685
5.73505
5.70877
5.70913
5.71003
5.71136
5.71307
5.71511
5.71739
5.71985
5.72239
5.72493
5.72737
5.72964
5.73166
5.73337
5.73473
5.73571
5.7363
5.73649
5.73631
5.7358
5.73502
5.73404
5.73294
5.70008
5.70029
5.70117
5.70252
5.70428
5.70639
5.70877
5.71135
5.71404
5.71675
5.71941
5.72194
5.72426
5.72631
5.72805
5.72944
5.73047
5.73114
5.73145
5.73144
5.73119
5.73086
5.73049
198.036
2.76981
2.15638
1.8073
329.352
15.1738
3.5587
2.76514
403.953
90.5534
3.05772
1.98142
334.946
207.612
3.73731
-0.708364
60.3039
204.356
57.0294
-2.31626
10.0873
53.5395
72.5901
38.9091
7.47462
9.56727
35.4662
46.0038
7.11645
7.79595
8.38787
11.7554
7.07832
7.4769
7.8806
8.09947
6.89717
7.05785
7.19172
7.23989
6.64122
6.70579
6.743
6.73534
6.42933
6.46252
6.47786
6.46847
6.25456
6.27543
6.28321
6.27518
6.11201
6.12852
6.13465
6.12937
5.99866
6.01421
6.02102
6.01892
5.91071
5.92604
5.9338
5.93422
5.84527
5.8599
5.86803
5.87005
5.79922
5.81221
5.81976
5.82232
5.76889
5.77944
5.78564
5.78786
5.75034
5.7581
5.7625
5.76384
5.7399
5.74492
5.74743
5.74764
5.73462
5.73724
5.73802
5.73709
5.73241
5.7331
5.73243
5.7305
5.73197
5.73118
5.72938
5.72664
5.73248
5.73059
5.72796
5.72463
5.73344
5.73079
5.72758
5.72383
5.73456
5.7314
5.72782
5.72382
5.73563
5.73218
5.7284
5.72429
5.73657
5.73299
5.72914
5.72503
5.73731
5.73372
5.72991
5.72589
5.73784
5.73433
5.73065
5.72679
5.73815
5.7348
5.73131
5.72767
5.73826
5.73512
5.73187
5.72849
5.73818
5.7353
5.73231
5.72922
5.73791
5.73531
5.73262
5.72984
5.73746
5.73516
5.73278
5.73033
5.73681
5.73483
5.73278
5.73068
5.73596
5.73431
5.73261
5.73086
5.7349
5.73359
5.73224
5.73086
5.7336
5.73265
5.73166
5.73066
5.73205
5.73146
5.73086
5.73024
5.73018
5.72998
5.72977
5.72956
2.29308
2.52362
2.63458
2.81236
3.00642
3.20241
3.38293
3.54151
3.67747
3.79263
3.88958
3.97096
4.03736
4.0927
4.13695
4.17126
4.19622
4.21306
4.22131
1.88805
1.81236
2.1414
2.53906
2.88038
3.15992
3.38732
3.57008
3.71814
3.83798
3.9353
4.01564
4.08084
4.13373
4.17583
4.20844
4.2326
4.24805
4.25572
0.519465
0.541945
1.34493
2.1875
2.76157
3.14117
3.41957
3.62142
3.77765
3.89965
3.99567
4.07249
4.1341
4.18345
4.22243
4.2527
4.27496
4.28927
4.29632
-1.9489
-1.27564
0.458827
1.90625
2.74102
3.17443
3.49318
3.70933
3.86479
3.9812
4.0708
4.14118
4.19703
4.24143
4.27612
4.30393
4.32359
4.33634
4.34262
-3.50391
-2.24855
0.113403
1.92982
2.86354
3.33955
3.64143
3.84111
3.98023
4.08244
4.16029
4.22095
4.26885
4.30709
4.33845
4.36109
4.37771
4.38859
4.39396
-1.24237
-1.48486
0.654726
2.37538
3.22977
3.62026
3.85532
4.01211
4.12086
4.20083
4.26212
4.31022
4.348
4.38014
4.40442
4.42288
4.43636
4.4452
4.44957
12.0933
0.957413
2.18467
3.25062
3.75908
3.98106
4.11494
4.20996
4.27877
4.33125
4.37291
4.4068
4.43536
4.45704
4.47471
4.48846
4.4986
4.50528
4.5086
13.0942
5.41274
4.08631
4.25373
4.32641
4.35818
4.38682
4.41659
4.44332
4.467
4.48817
4.50686
4.52309
4.53655
4.54774
4.55669
4.5634
4.56789
4.57014
7.57983
6.26637
5.29421
4.92317
4.77583
4.68709
4.63793
4.61417
4.60404
4.60141
4.60305
4.60705
4.6121
4.61726
4.62213
4.62637
4.62973
4.63207
4.63326
7.04093
6.31506
5.70679
5.32565
5.0953
4.94703
4.85159
4.79111
4.75281
4.72869
4.71381
4.70497
4.70003
4.69753
4.69651
4.69635
4.69657
4.69688
4.69708
6.62319
6.24968
5.85518
5.53728
5.30585
5.14057
5.02379
4.94213
4.88515
4.84537
4.81762
4.79834
4.78501
4.77586
4.76967
4.76558
4.76297
4.76146
4.76076
6.40393
6.17246
5.89631
5.64449
5.43914
5.27917
5.15766
5.0668
4.99937
4.9495
4.91269
4.88556
4.86564
4.85109
4.84058
4.83316
4.82813
4.82503
4.82355
6.23281
6.08156
5.88732
5.69304
5.52031
5.37589
5.25941
5.1675
5.09594
5.04067
4.99821
4.96573
4.94101
4.92235
4.90846
4.89836
4.89135
4.88694
4.88482
6.10085
5.99857
5.85934
5.70993
5.56805
5.4424
5.3358
5.24783
5.17653
5.11946
5.07418
5.03853
5.01067
4.98914
4.97276
4.96064
4.9521
4.94667
4.94404
6.00052
5.92875
5.82637
5.71072
5.59516
5.48791
5.39298
5.31161
5.24337
5.18705
5.14112
5.10407
5.07449
5.05118
5.03316
5.01964
5.01001
5.00384
5.00083
5.92299
5.87136
5.79451
5.70406
5.60995
5.51921
5.43602
5.36236
5.29876
5.24486
5.19986
5.16277
5.13261
5.10845
5.08952
5.07515
5.06482
5.05816
5.05489
5.86335
5.82527
5.76639
5.69472
5.61772
5.54115
5.46887
5.4031
5.34486
5.29437
5.25134
5.21521
5.18535
5.16109
5.14185
5.1271
5.11642
5.10948
5.10608
5.81854
5.78894
5.74292
5.6853
5.62181
5.55708
5.4945
5.43625
5.38356
5.33697
5.29654
5.26204
5.23312
5.20934
5.19027
5.17552
5.16477
5.15775
5.15429
5.78497
5.76168
5.72425
5.67708
5.62422
5.56925
5.51509
5.46373
5.41642
5.37388
5.33638
5.30394
5.27639
5.2535
5.23496
5.22052
5.20991
5.20296
5.19953
5.76083
5.74125
5.71021
5.67075
5.62618
5.57912
5.53218
5.48698
5.4447
5.40613
5.37169
5.34153
5.31563
5.2939
5.27616
5.26224
5.25196
5.2452
5.24185
5.7439
5.72655
5.69999
5.66647
5.62854
5.58757
5.54686
5.50709
5.46939
5.4346
5.40318
5.37538
5.35129
5.33089
5.31412
5.30087
5.29105
5.28456
5.28134
5.73239
5.71636
5.69301
5.66395
5.63103
5.5958
5.56001
5.52491
5.49124
5.45998
5.43147
5.40602
5.38377
5.3648
5.34911
5.33664
5.32736
5.32121
5.31815
5.72487
5.70965
5.68868
5.66308
5.63425
5.60349
5.57208
5.54113
5.51076
5.48282
5.45706
5.43387
5.41347
5.39595
5.38138
5.36975
5.36106
5.35529
5.35242
5.72023
5.70558
5.68643
5.66359
5.6381
5.61099
5.58323
5.55566
5.52887
5.50369
5.48039
5.45935
5.4407
5.42463
5.41119
5.40043
5.39236
5.38698
5.38432
5.71764
5.70348
5.68581
5.66521
5.64248
5.61841
5.59377
5.56924
5.5454
5.52281
5.50183
5.48277
5.46578
5.45111
5.43878
5.42888
5.42144
5.41646
5.41402
5.71647
5.7028
5.6864
5.66769
5.64729
5.62581
5.60385
5.58198
5.56071
5.54046
5.52159
5.50437
5.48899
5.47564
5.46437
5.4553
5.44849
5.4439
5.44169
5.71629
5.70314
5.68788
5.67081
5.65241
5.63316
5.61354
5.59402
5.575
5.55687
5.53992
5.5244
5.51051
5.4984
5.48817
5.47991
5.4737
5.46948
5.46749
5.71675
5.70419
5.68999
5.67439
5.65775
5.64046
5.62289
5.60544
5.58844
5.5722
5.557
5.54305
5.53053
5.5196
5.51034
5.50286
5.49721
5.49339
5.49156
5.71763
5.70572
5.69254
5.67827
5.66322
5.64766
5.63193
5.61632
5.60112
5.5866
5.57299
5.56048
5.54924
5.5394
5.53106
5.5243
5.51919
5.51575
5.51407
5.71876
5.70756
5.69537
5.68235
5.66873
5.65475
5.64066
5.62671
5.61314
5.60018
5.58802
5.57683
5.56677
5.55795
5.55046
5.54439
5.53979
5.5367
5.53518
5.72001
5.70958
5.69837
5.68653
5.67424
5.66169
5.64909
5.63665
5.62457
5.61302
5.6022
5.59223
5.58326
5.57538
5.5687
5.56327
5.55915
5.55638
5.55501
5.72132
5.71169
5.70145
5.69074
5.67968
5.66846
5.65724
5.64618
5.63545
5.62522
5.61561
5.60678
5.59882
5.59183
5.58589
5.58106
5.5774
5.57494
5.5737
5.72262
5.71382
5.70455
5.69492
5.68504
5.67506
5.6651
5.65532
5.64585
5.63682
5.62836
5.62057
5.61355
5.60739
5.60215
5.59789
5.59466
5.59248
5.59138
5.72388
5.71593
5.70762
5.69904
5.69028
5.68146
5.6727
5.66411
5.65581
5.64791
5.64051
5.6337
5.62757
5.62218
5.6176
5.61387
5.61104
5.60914
5.60816
5.72505
5.71798
5.71063
5.70306
5.69538
5.68768
5.68005
5.67259
5.66539
5.65854
5.65214
5.64625
5.64095
5.63629
5.63233
5.62911
5.62666
5.62501
5.62416
5.72612
5.71994
5.71353
5.70698
5.70034
5.69371
5.68716
5.68077
5.67461
5.66877
5.66331
5.6583
5.65378
5.64982
5.64644
5.6437
5.64161
5.64021
5.63948
5.72707
5.72178
5.71632
5.71076
5.70515
5.69956
5.69405
5.68869
5.68354
5.67866
5.6741
5.66991
5.66615
5.66284
5.66003
5.65774
5.656
5.65484
5.65421
5.72786
5.72348
5.71898
5.71441
5.70981
5.70524
5.70075
5.69639
5.69221
5.68825
5.68456
5.68117
5.67812
5.67545
5.67318
5.67133
5.66992
5.66898
5.66846
5.72849
5.72504
5.7215
5.71792
5.71433
5.71077
5.70728
5.70389
5.70065
5.69759
5.69474
5.69213
5.68978
5.68772
5.68597
5.68454
5.68346
5.68274
5.68233
5.72893
5.72643
5.72388
5.72129
5.71871
5.71615
5.71365
5.71123
5.70892
5.70674
5.70471
5.70286
5.70119
5.69972
5.69848
5.69747
5.6967
5.6962
5.69589
5.72918
5.72766
5.7261
5.72453
5.72296
5.72141
5.7199
5.71845
5.71706
5.71575
5.71453
5.71342
5.71242
5.71154
5.7108
5.71019
5.70973
5.70944
5.70924
5.7292
5.72867
5.72814
5.7276
5.72707
5.72655
5.72603
5.72554
5.72508
5.72464
5.72423
5.72386
5.72352
5.72323
5.72298
5.72278
5.72263
5.72253
5.72246
)
;

boundaryField
{
    leftWall
    {
        type            fixedFluxPressure;
        gradient        uniform 0;
        value           nonuniform List<scalar> 
50
(
2531.23
2529.93
2527.33
2523.44
2518.3
2511.94
2504.39
2495.74
2480.57
2455.63
2427.19
2396.05
2363.05
2329.06
2294.91
2261.26
2228.9
2198.71
2170.38
2142.27
1918.3
450.322
5.45961
5.45919
5.46815
5.48628
5.51253
5.54353
5.57608
5.60835
5.63862
5.66559
5.68857
5.70737
5.72231
5.73383
5.74231
5.7481
5.75149
5.75278
5.75226
5.7502
5.74684
5.74239
5.73708
5.73104
5.72422
5.71672
5.70877
5.70008
)
;
    }
    rightWall
    {
        type            fixedFluxPressure;
        gradient        uniform 0;
        value           nonuniform List<scalar> 
50
(
4.1551
4.15672
4.15999
4.16496
4.17157
4.17979
4.18963
4.20103
4.22131
4.25572
4.29632
4.34262
4.39396
4.44957
4.5086
4.57014
4.63326
4.69708
4.76076
4.82355
4.88482
4.94404
5.00083
5.05489
5.10608
5.15429
5.19953
5.24185
5.28134
5.31815
5.35242
5.38432
5.41402
5.44169
5.46749
5.49156
5.51407
5.53518
5.55501
5.5737
5.59138
5.60816
5.62416
5.63948
5.65421
5.66846
5.68233
5.69589
5.70924
5.72246
)
;
    }
    lowerWall
    {
        type            fixedFluxPressure;
        gradient        uniform 0;
        value           nonuniform List<scalar> 
62
(
2531.23
2535.4
2530.65
2519.61
2504.74
2486.3
2463.69
2436.49
2404.45
2367.58
2326.37
2282.14
2237.55
2197.52
2170.5
2170.44
2219.18
2352.2
2595.33
2971.71
3437.67
3844.98
4115.29
4115.29
4194.05
4240.86
4219.34
4117.72
3848.03
3344.54
2508.07
198.036
2.76981
2.15638
1.8073
3.11687
3.11489
3.10679
3.092
3.06542
3.01867
2.92676
2.76866
3.11687
3.09976
3.10201
3.14062
3.21116
3.30484
3.41045
3.5192
3.62487
3.72348
3.81276
3.89165
3.95975
4.01722
4.06425
4.10126
4.12854
4.14624
4.1551
)
;
    }
    atmosphere
    {
        type            prghTotalPressure;
        rho             rho;
        psi             none;
        gamma           1;
        p0              uniform 0;
        value           nonuniform List<scalar> 
46
(
5.69534
5.69524
5.69617
5.69756
5.69937
5.70153
5.70399
5.70665
5.70943
5.71227
5.71507
5.71775
5.72024
5.72249
5.72444
5.72606
5.72733
5.72824
5.72881
5.72903
5.72904
5.72904
5.72904
5.72904
5.72904
5.72904
5.72904
5.72904
5.72904
5.72904
5.72904
5.72904
5.72904
5.72904
5.72904
5.72904
5.72904
5.72904
5.72904
5.72904
5.72904
5.72904
5.72904
5.72904
5.72904
5.72904
)
;
        rho             rho;
    }
    defaultFaces
    {
        type            empty;
    }
}


// ************************************************************************* //
