/*--------------------------------*- C++ -*----------------------------------*\
  =========                 |
  \\      /  F ield         | OpenFOAM: The Open Source CFD Toolbox
   \\    /   O peration     | Website:  https://openfoam.org
    \\  /    A nd           | Version:  13
     \\/     M anipulation  |
\*---------------------------------------------------------------------------*/
FoamFile
{
    format      ascii;
    class       volScalarField;
    location    "0.6";
    object      alpha.water;
}
// * * * * * * * * * * * * * * * * * * * * * * * * * * * * * * * * * * * * * //

dimensions      [];

internalField   nonuniform List<scalar> 
2268
(
1
1
1
1
1
1
1
1
1
1
1
1
1
1
1
1
1
0.999484
0.953974
0.923503
0.979114
0.998673
0.998673
1
1
1
1
1
1
1
1
1
1
1
1
1
1
1
1
1
1
0.990386
0.923576
0.94534
0.998672
0.998673
1
1
1
1
1
1
1
1
1
1
1
1
1
1
1
1
1
1
1
0.977117
0.934433
0.952802
0.997234
1
1
1
1
1
1
1
1
1
1
1
1
1
1
1
1
1
1
1
0.999999
0.934435
0.934746
0.993996
1
1
1
1
1
1
1
1
1
1
1
1
1
1
1
1
1
1
1
1
0.976714
0.99016
0.999236
1
1
1
1
1
1
0.999999
0.999998
0.999999
0.999999
1
1
1
1
1
1
1
1
1
1
1
0.999939
0.999928
1
1
0.999999
0.999996
0.999992
0.999954
0.999926
0.999935
0.999957
0.999985
0.999997
1
1
1
1
1
1
1
1
1
1
1
0.999897
0.999998
0.999571
0.985887
0.971412
0.968891
0.980266
0.995117
0.99772
0.998769
0.999568
0.999997
0.999989
0.999992
0.999998
1
1
1
1
1
1
1
1
0.999897
0.296374
0.438065
0.98628
0.998968
0.576596
0.393137
0.476641
0.734214
0.73621
0.735927
0.7672
0.785999
0.811871
0.841903
0.862447
0.870778
0.876338
0.878038
0.773728
0.296374
0.639448
0.999974
0.999974
0.999803
0.445889
0.59787
0.639493
0.207429
0.168705
0.244974
0.306558
0.395522
0.491233
0.599434
0.730356
0.855889
0.90261
0.903258
0.432043
0.993955
0.999974
0.999974
0.999974
0.692675
0.593741
0.240556
0.000339366
0.000321402
0.000326203
0.000350966
0.000450262
0.000827416
0.00233677
0.0712907
0.356173
0.806891
0.904907
0.872579
0.999972
0.999973
0.999974
0.999973
0.908603
0.488899
0.0090887
0.000327694
0.000322506
0.00032119
0.000326203
0.000350967
0.000450877
0.000765088
0.00244505
0.0150189
0.50681
0.904907
0.99968
0.999668
0.999962
0.999973
0.99997
0.88588
0.200748
0.000661597
0.000428178
0.000384507
0.00118591
0.00080449
0.000463947
0.000383804
0.000279023
0.000840511
0.00438945
0.312146
0.904907
0.999814
0.999714
0.999953
0.99997
0.999946
0.782234
0.173805
0.00274182
0.000591803
0.000480606
0.00131074
0.00130454
0.0010549
0.000318273
0.000151801
0.000291985
0.00215549
0.232957
0.904906
0.999843
0.999884
0.999953
0.999959
0.999789
0.784582
0.448983
0.00668461
0.000580791
0.000931845
0.0013094
0.00131405
0.00130454
0.000872714
0.000114396
9.0305e-05
0.00114299
0.197152
0.904899
0.999814
0.999956
0.999954
0.99995
0.886824
0.864814
0.804817
0.00339931
0.000635798
0.00130413
0.00131147
0.00130347
0.000545114
0.000217565
0.000106757
5.79948e-05
0.000134539
0.173658
0.904872
0.715314
0.573129
0.456745
0.437297
0.462152
0.546374
0.683642
0.798454
0.880947
0.946643
0.99122
0.999999
1
1
1
1
0.999999
0.999999
1
1
1
1
0.999928
2.47251e-08
2.51311e-08
5.81384e-06
0.00507422
0.0520404
0.099997
0.122811
0.14133
0.190117
0.279791
0.40661
0.550959
0.700183
0.873323
0.999735
1
1
1
1
1
1
1
0.999977
2.22182e-08
1.19408e-06
2.25046e-06
5.57806e-12
8.09828e-12
9.78086e-11
5.47576e-10
1.51044e-09
9.15359e-11
1.65517e-09
2.92374e-08
0.00574331
0.0634114
0.169995
0.337956
0.520232
0.661772
0.836096
0.965259
0.98728
0.992565
0.997986
0.999943
2.15213e-08
2.24273e-07
1.28512e-07
5.59376e-12
5.74351e-12
1.48894e-10
4.07582e-10
4.05467e-11
2.05831e-11
9.35247e-11
1.65582e-09
1.11347e-08
1.94527e-08
2.43914e-08
1.19216e-07
0.0165771
0.0478518
0.100505
0.218809
0.337181
0.420103
0.512312
0.624826
1.17311e-09
7.0509e-09
3.71532e-09
4.30387e-10
3.90246e-12
1.58469e-11
2.53872e-11
1.8684e-11
1.95899e-11
1.19305e-08
5.97697e-08
1.91215e-08
1.91215e-08
1.94518e-08
2.43907e-08
1.19183e-07
3.25802e-07
4.95199e-07
5.86667e-07
7.90694e-07
2.61392e-06
7.13203e-06
0.00739897
1.03401e-12
2.45699e-12
6.18814e-12
3.07262e-11
3.88646e-12
6.75929e-12
9.48172e-12
9.71327e-12
2.13335e-08
3.80963e-07
4.95055e-07
4.36866e-07
7.54767e-08
1.09881e-07
1.02385e-05
1.49919e-05
1.48059e-05
7.00717e-06
9.11278e-06
8.80877e-06
8.55067e-06
8.63425e-06
9.30532e-06
1.37766e-14
3.13334e-14
1.01591e-13
9.50953e-13
5.11701e-12
1.08815e-11
1.37962e-11
9.82895e-12
3.07642e-08
4.60478e-07
4.95055e-07
4.90845e-07
1.56256e-07
5.7313e-08
4.26789e-07
1.30564e-05
8.73988e-06
4.92873e-06
1.30451e-05
1.30381e-05
9.06179e-06
8.91323e-05
0.000179793
3.92126e-16
6.04664e-16
2.21366e-14
6.66634e-13
5.25945e-12
1.31393e-11
1.71622e-11
1.63854e-11
4.89541e-09
1.46701e-07
3.44408e-07
3.53246e-08
1.23436e-08
1.91434e-07
6.2216e-07
1.59724e-11
1.59726e-11
1.59724e-11
9.45728e-11
2.29494e-09
1.01224e-05
0.00017022
0.000420515
8.03167e-18
6.30409e-18
4.02098e-15
3.36343e-13
3.815e-12
1.12785e-11
1.5999e-11
2.0294e-11
8.30081e-11
1.16785e-10
6.99512e-10
6.9986e-10
1.18314e-08
6.64904e-07
9.10884e-07
9.41043e-08
1.06284e-11
1.73926e-11
1.17568e-08
8.9634e-07
1.4126e-05
2.75706e-05
0.000299856
1.72074e-19
3.40758e-19
7.44804e-16
9.76825e-14
1.50864e-12
6.03929e-12
1.11155e-11
1.61782e-11
4.63888e-11
1.34715e-10
3.00036e-10
6.92407e-10
4.09154e-09
1.8495e-07
5.09011e-07
1.5154e-08
5.02759e-12
3.5184e-12
2.03519e-07
1.09669e-06
1.53462e-07
2.2034e-07
0.000114455
6.27166e-21
5.14135e-20
1.71013e-16
2.44246e-14
3.93763e-13
1.84077e-12
4.42118e-12
7.64201e-12
4.8509e-11
4.99658e-10
1.08554e-09
2.64792e-09
5.22302e-09
5.32886e-12
5.30025e-12
5.2795e-12
5.25419e-12
2.04785e-12
2.82422e-12
1.29761e-10
6.03566e-09
1.00172e-07
0.000120451
2.09711e-21
8.25828e-21
3.42636e-17
5.77358e-15
8.95123e-14
4.09747e-13
1.28608e-12
3.49134e-12
1.94013e-11
3.0724e-10
1.30015e-09
2.65091e-09
2.20968e-09
8.85931e-11
2.6687e-11
5.85921e-12
2.42947e-12
7.67874e-13
8.16599e-13
6.70856e-11
1.04654e-07
2.09349e-07
3.96817e-08
1.82189e-21
1.28762e-21
5.50326e-18
1.10944e-15
1.77345e-14
8.54511e-14
4.0682e-13
1.50455e-12
3.48728e-12
6.55618e-11
7.27696e-10
1.93219e-09
1.02946e-09
1.84814e-10
3.92508e-11
5.36945e-12
8.92894e-13
6.16342e-13
7.5211e-13
9.32048e-13
3.30627e-12
8.31205e-11
1.93646e-09
1.32882e-21
1.86721e-22
8.59143e-19
1.79757e-16
2.91274e-15
1.4582e-14
1.01628e-13
5.88529e-13
1.86903e-12
1.48012e-11
1.36607e-10
3.24586e-10
2.60133e-10
1.36201e-10
1.70738e-11
1.09226e-12
3.3152e-13
3.02649e-13
9.39425e-13
7.84106e-12
5.60012e-11
1.24054e-10
5.98266e-10
5.32359e-22
3.16751e-23
1.34427e-19
2.47007e-17
3.92122e-16
1.99874e-15
1.96849e-14
2.16232e-13
1.49084e-12
5.22223e-12
8.2431e-12
6.02934e-12
9.0033e-12
1.69706e-11
2.23623e-12
1.40018e-13
5.88979e-14
7.48765e-14
5.83981e-13
9.45387e-12
1.2711e-10
4.89975e-10
1.08788e-09
7.62442e-23
7.0504e-24
2.09426e-20
2.73176e-18
4.24208e-17
2.32791e-16
4.16893e-15
9.08628e-14
6.8324e-13
1.26215e-12
5.05351e-13
1.434e-13
1.19325e-13
2.10946e-13
8.31996e-14
1.78662e-14
8.89993e-15
8.9868e-15
1.20528e-13
2.66692e-12
3.84193e-11
2.17926e-10
5.53202e-10
3.60481e-24
2.17187e-24
3.15444e-21
2.32823e-19
3.57771e-18
2.61547e-17
9.81629e-16
2.05301e-14
1.14598e-13
1.71605e-13
1.56794e-13
1.39076e-13
8.73172e-14
2.07097e-14
4.66373e-15
2.51613e-15
1.69428e-15
2.06554e-15
3.68852e-14
8.14509e-13
1.03465e-11
6.3309e-11
2.06057e-10
1.27727e-25
6.64052e-25
4.09199e-22
1.55141e-20
2.271e-19
2.86123e-18
1.48633e-16
2.20553e-15
1.18271e-14
3.95427e-14
8.26762e-14
9.64512e-14
3.85146e-14
6.57571e-15
7.35839e-16
3.14428e-16
2.68566e-16
7.30415e-16
1.56746e-14
3.25817e-13
4.27513e-12
2.51863e-11
7.95319e-11
6.98912e-27
1.16144e-25
4.06298e-23
8.71751e-22
1.03236e-20
2.79453e-19
1.40224e-17
1.8485e-16
1.64358e-15
9.03652e-15
2.10979e-14
2.43153e-14
5.78441e-15
1.13462e-15
1.51661e-16
5.0795e-17
4.49414e-17
2.59769e-16
6.51083e-15
1.15635e-13
1.48453e-12
1.01745e-11
3.33851e-11
3.95436e-28
1.01866e-26
2.86761e-24
4.35613e-23
3.21067e-22
2.19988e-20
1.19565e-18
2.15138e-17
2.52986e-16
1.14136e-15
1.88988e-15
1.64892e-15
4.43152e-16
1.35606e-16
3.06596e-17
8.99745e-18
7.50981e-18
8.08295e-17
2.51261e-15
4.14937e-14
4.35723e-13
3.54525e-12
1.75168e-11
1.69494e-29
4.10931e-28
1.16453e-25
1.56418e-24
8.56353e-24
1.85244e-21
1.22079e-19
2.60858e-18
2.51129e-17
7.48464e-17
8.99148e-17
7.37945e-17
4.50161e-17
1.95885e-17
5.43112e-18
1.32745e-18
1.03928e-18
2.1205e-17
8.53897e-16
1.64093e-14
1.59019e-13
1.31162e-12
9.99819e-12
5.90802e-31
3.80123e-30
1.3311e-27
2.21074e-26
3.8488e-25
1.69266e-22
1.28361e-20
2.43126e-19
1.58804e-18
4.19529e-18
5.91408e-18
6.18347e-18
5.37352e-18
2.78445e-18
8.09134e-19
1.99798e-19
1.64912e-19
5.01575e-18
2.65449e-16
7.06557e-15
7.71422e-14
5.88097e-13
5.36932e-12
1.99328e-32
2.00495e-32
8.4992e-30
3.00252e-28
2.34373e-26
1.02998e-23
9.07544e-22
1.65823e-20
9.67613e-20
2.90109e-19
4.94037e-19
5.61818e-19
5.05626e-19
2.73594e-19
8.41481e-20
2.85809e-20
3.0603e-20
1.17562e-18
8.06848e-17
3.23164e-15
4.4563e-14
3.14413e-13
2.48703e-12
6.13143e-34
1.98781e-34
1.26073e-31
9.77401e-30
9.67197e-28
2.89935e-25
3.2473e-23
7.20607e-22
5.0276e-21
1.73068e-20
3.11729e-20
3.53421e-20
2.98786e-20
1.56193e-20
5.27046e-21
2.78231e-21
6.2763e-21
2.86008e-19
2.37895e-17
1.41422e-15
2.65131e-14
1.90421e-13
1.06093e-12
1.62676e-35
2.50943e-36
1.6817e-33
2.00646e-31
1.95604e-29
4.12656e-27
5.22477e-25
1.58567e-23
1.49189e-22
5.77257e-22
1.02504e-21
1.14022e-21
9.25126e-22
4.81081e-22
2.02012e-22
1.63783e-22
1.39323e-21
7.12322e-20
6.50267e-18
5.21972e-16
1.37086e-14
1.13162e-13
4.91436e-13
4.10159e-37
3.20828e-38
2.05496e-35
2.40911e-33
2.90037e-31
5.48359e-29
5.80033e-27
1.9284e-25
2.12988e-24
8.67052e-24
1.51409e-23
1.70072e-23
1.42228e-23
8.16542e-24
4.98129e-24
1.05659e-23
3.19255e-22
1.7214e-20
1.58953e-18
1.52282e-16
5.43389e-15
5.60323e-14
2.36028e-13
1.05883e-38
4.07742e-40
2.77354e-37
3.18426e-35
4.76301e-33
8.6074e-31
7.77412e-29
2.31014e-27
2.37748e-26
9.37453e-26
1.68231e-25
1.99468e-25
1.81501e-25
1.25617e-25
1.22324e-25
1.52456e-24
7.2728e-23
3.8709e-21
3.40391e-19
3.59754e-17
1.63891e-15
2.14884e-14
1.02384e-13
2.77073e-40
5.43379e-42
3.84419e-39
4.6975e-37
8.13235e-35
1.41627e-32
1.20027e-30
3.36893e-29
3.29914e-28
1.29317e-27
2.42144e-27
3.01398e-27
2.91962e-27
2.32212e-27
7.75856e-27
3.38661e-25
1.63044e-23
8.12976e-22
6.507e-20
7.38619e-18
4.0762e-16
6.54475e-15
3.77903e-14
7.19535e-42
8.82036e-44
5.43837e-41
7.07126e-39
1.35899e-36
2.32316e-34
1.90884e-32
5.29472e-31
5.18603e-30
2.07091e-29
3.97734e-29
5.06673e-29
5.11747e-29
5.4936e-29
1.21024e-27
7.76547e-26
3.5422e-24
1.61503e-22
1.12169e-20
1.33126e-18
8.84663e-17
1.67001e-15
1.1588e-14
1.83977e-43
1.93564e-45
8.07794e-43
1.11433e-40
2.24797e-38
3.79618e-36
3.05961e-34
8.47209e-33
8.37933e-32
3.41359e-31
6.66285e-31
8.62271e-31
9.20269e-31
3.14367e-30
2.37734e-28
1.55785e-26
7.07191e-25
2.93796e-23
1.66975e-21
1.92085e-19
1.61747e-17
3.67322e-16
2.8719e-15
4.61536e-45
5.29106e-47
1.2739e-44
1.86991e-42
3.73107e-40
6.20715e-38
4.94703e-36
1.37075e-34
1.36783e-33
5.66968e-33
1.12301e-32
1.48554e-32
2.07754e-32
4.17315e-31
4.12016e-29
2.56683e-27
1.20226e-25
4.65614e-24
2.11364e-22
2.0357e-20
2.28476e-18
6.86968e-17
5.77216e-16
1.13161e-46
1.52965e-48
2.09959e-46
3.2717e-44
6.22914e-42
1.01962e-39
8.08353e-38
2.24445e-36
2.25657e-35
9.48101e-35
1.90474e-34
2.6095e-34
9.86151e-34
6.4813e-32
5.54616e-30
3.35632e-28
1.66078e-26
6.36304e-25
2.4775e-23
1.69944e-21
2.38853e-19
1.04983e-17
9.83143e-17
2.7001e-48
4.33659e-50
3.52135e-48
5.7646e-46
1.04482e-43
1.68992e-41
1.33756e-39
3.72418e-38
3.76376e-37
1.59384e-36
3.24099e-36
5.01347e-36
1.03461e-34
8.44389e-33
5.7874e-31
3.55911e-29
1.90856e-27
7.82979e-26
3.05617e-24
1.48348e-22
2.052e-20
1.31179e-18
1.47642e-17
6.2421e-50
1.1788e-51
5.87626e-50
1.00247e-47
1.76141e-45
2.83637e-43
2.24362e-41
6.25421e-40
6.33476e-39
2.69127e-38
5.53313e-38
1.44915e-37
1.24353e-35
8.25712e-34
5.09788e-32
3.46241e-30
2.00872e-28
9.39627e-27
4.1646e-25
1.71664e-23
1.88213e-21
1.47643e-19
1.99553e-18
1.39239e-51
2.9968e-53
9.7523e-52
1.71121e-49
2.99373e-47
4.83032e-45
3.81316e-43
1.06177e-41
1.07448e-40
4.56256e-40
9.66935e-40
7.59011e-39
1.03907e-36
6.02141e-35
4.41872e-33
3.51348e-31
2.1099e-29
1.1466e-27
5.84287e-26
2.40118e-24
2.12765e-22
1.66482e-20
2.46935e-19
2.98811e-53
7.03425e-55
1.63287e-53
2.90651e-51
5.14766e-49
8.34142e-47
6.54993e-45
1.81749e-43
1.83317e-42
7.75874e-42
1.82889e-41
3.82714e-40
4.51456e-38
3.42607e-36
3.75351e-34
3.38549e-32
2.07777e-30
1.28506e-28
7.21301e-27
3.17365e-25
2.51338e-23
1.80141e-21
2.76886e-20
6.16205e-55
1.52838e-56
2.77549e-55
4.95363e-53
8.96625e-51
1.45645e-48
1.13352e-46
3.12827e-45
3.14005e-44
1.32366e-43
3.58472e-43
1.10663e-41
1.15066e-39
1.56052e-37
2.34261e-35
2.29143e-33
1.53693e-31
1.06393e-29
6.51983e-28
3.21546e-26
2.40035e-24
1.60858e-22
2.67266e-21
1.22214e-56
3.06026e-58
4.79096e-57
8.50536e-55
1.57969e-52
2.5607e-50
1.97086e-48
5.40119e-47
5.3934e-46
2.26434e-45
6.36939e-45
2.1584e-43
3.07389e-41
5.24981e-39
7.98984e-37
8.23043e-35
6.72679e-33
5.35396e-31
3.75699e-29
2.20793e-27
1.57562e-25
1.06372e-23
2.08841e-22
2.33918e-58
5.53627e-60
8.38958e-59
1.47758e-56
2.80441e-54
4.51467e-52
3.43142e-50
9.33521e-49
9.2808e-48
3.88488e-47
1.07591e-46
4.33313e-45
8.20581e-43
1.21896e-40
1.58973e-38
1.63178e-36
1.63861e-34
1.58929e-32
1.33901e-30
9.7112e-29
6.9118e-27
5.15918e-25
1.25237e-23
4.34834e-60
9.05679e-62
1.48556e-60
2.60299e-58
4.99479e-56
7.94634e-54
5.96819e-52
1.61275e-50
1.59808e-49
6.68312e-49
1.84137e-48
8.50274e-47
1.62884e-44
2.16455e-42
2.65512e-40
2.65768e-38
2.84567e-36
3.18526e-34
3.0713e-32
2.59562e-30
2.05286e-28
1.85047e-26
5.38599e-25
7.91842e-62
8.98413e-64
2.62558e-62
4.65523e-60
8.9093e-58
1.39463e-55
1.03738e-53
2.78075e-52
2.69606e-51
1.07738e-50
2.79478e-50
1.45608e-48
2.60451e-46
3.53659e-44
4.41395e-42
4.46428e-40
4.71662e-38
5.27162e-36
5.15768e-34
4.51074e-32
4.15158e-30
4.3586e-28
1.45615e-26
7.38568e-64
4.64031e-64
4.76922e-64
4.09197e-62
7.81457e-60
1.22157e-57
9.03236e-56
3.00609e-54
7.9016e-53
7.9365e-52
3.51703e-51
1.16962e-50
2.07143e-48
2.93352e-46
3.71659e-44
3.8418e-42
4.06653e-40
4.40675e-38
4.21138e-36
3.63499e-34
3.62162e-32
3.9235e-30
1.43465e-28
0.99995
0.999974
0.999974
0.999974
0.999962
0.999971
0.999974
0.999974
0.999915
0.999915
0.999872
0.999893
0.711393
0.742525
0.726607
0.690043
0.0817798
0.103215
0.0762523
0.0530595
1.17545e-05
3.56726e-05
0.000149109
9.34561e-05
0.000124736
3.81432e-05
3.81432e-05
5.75229e-05
0.000420515
0.000419602
0.000419637
0.000282171
0.000420518
0.000420515
0.000420474
0.00042016
0.000420515
0.000420446
0.00025338
4.94555e-05
0.000420187
0.000418026
0.00021814
5.29008e-05
1.12176e-06
0.000103437
0.000265547
0.00026672
5.20474e-08
3.12662e-06
6.35333e-05
0.000125752
3.10175e-08
9.71154e-07
1.40432e-06
1.00115e-06
8.22118e-09
2.70277e-08
3.31827e-08
1.78212e-08
7.9205e-10
9.76364e-10
1.56201e-09
1.58616e-09
3.37133e-10
3.81557e-10
4.48741e-10
6.20894e-10
1.58182e-10
2.78253e-10
4.47954e-10
5.72399e-10
6.04021e-11
1.18346e-10
2.7189e-10
4.79301e-10
3.82613e-11
5.60268e-11
9.64357e-11
2.09013e-10
3.13181e-11
5.05492e-11
6.5922e-11
8.60996e-11
2.34024e-11
4.76104e-11
6.72589e-11
8.34821e-11
1.37472e-11
4.1982e-11
7.52201e-11
9.62863e-11
5.67995e-12
2.93445e-11
7.46673e-11
1.29587e-10
1.77169e-12
1.36686e-11
5.96494e-11
1.28677e-10
5.78277e-13
3.93553e-12
3.06885e-11
1.02874e-10
2.21673e-13
7.9867e-13
9.03913e-12
5.62203e-11
9.04845e-14
1.99582e-13
1.45907e-12
1.84313e-11
3.40596e-14
8.34154e-14
3.32545e-13
5.97062e-12
9.8937e-15
3.64192e-14
1.6422e-13
2.90816e-12
1.96458e-15
1.10278e-14
7.25605e-14
1.01988e-12
2.85748e-16
1.70612e-15
1.71686e-14
1.66757e-13
3.82384e-17
1.35644e-16
1.54231e-15
1.30721e-14
5.24303e-18
1.13787e-17
7.07519e-17
7.9221e-16
6.97707e-19
1.62575e-18
7.71686e-18
7.74878e-17
8.64523e-20
2.95445e-19
1.83314e-18
1.49897e-17
9.77706e-21
5.38608e-20
4.72782e-19
3.95556e-18
9.53717e-22
8.49547e-21
9.89016e-20
9.8194e-19
7.18285e-23
1.02836e-21
1.47802e-20
1.75785e-19
3.59106e-24
8.3609e-23
1.44785e-21
1.93703e-20
1.09163e-25
3.75414e-24
8.06949e-23
1.18819e-21
1.2404e-27
5.24051e-26
1.42079e-24
2.36903e-23
0.999973
0.999971
0.999966
0.999951
0.420552
0.728586
0.448665
0.00087984
0.000967868
0.000969637
0.000144891
4.77955e-05
4.64538e-05
8.62677e-05
0.000168113
5.48678e-05
5.34533e-05
0.168765
0.904762
0.999964
0.999966
0.999954
0.772059
0.119236
0.295382
0.00569821
0.000425566
0.000321063
8.40565e-05
4.62131e-05
4.5924e-05
4.6177e-05
4.64538e-05
6.8455e-05
5.13999e-05
5.18173e-05
0.27383
0.901414
0.999694
0.999442
0.999805
0.313347
0.0767058
0.0051955
0.00081476
0.000231837
7.15482e-05
4.7435e-05
4.59361e-05
4.5924e-05
4.5924e-05
4.6302e-05
4.76889e-05
4.98423e-05
5.20388e-05
0.350361
0.898771
0.726178
0.970015
0.924803
0.123311
0.0167501
0.00268416
0.000427582
0.000338323
0.000630728
0.000576687
7.194e-05
4.5924e-05
4.6302e-05
4.76889e-05
4.98462e-05
5.20499e-05
5.86825e-05
0.400375
0.896907
0.247
0.661023
0.664
0.00853219
0.00688328
0.00617925
0.000364503
0.000383758
0.000791162
0.000791162
0.000708099
8.15659e-05
4.90401e-05
5.36436e-05
5.70593e-05
5.88428e-05
8.37652e-05
0.455605
0.896465
0.00541547
0.257389
0.436754
0.00916267
0.00853219
0.00807842
0.000770889
0.000269917
0.000314179
0.000533798
0.00030076
9.33206e-05
6.76629e-05
8.15747e-05
8.53402e-05
8.59545e-05
0.000178425
0.537206
0.898393
9.33354e-05
0.0159179
0.496392
0.693104
0.318598
0.000584667
0.000271821
0.000195877
0.000154275
0.000130265
0.000129116
0.000121826
0.000154092
0.000220391
0.00020153
0.00018471
0.000619294
0.661146
0.899588
7.91048e-05
0.000141097
0.0754676
0.596514
0.6405
0.196747
0.00058566
0.000275305
0.000182164
0.000141962
0.000130243
0.000197937
0.00057374
0.000812485
0.000733741
0.000635672
0.0606328
0.804872
0.899772
6.727e-05
5.43947e-05
0.000157821
0.0898052
0.555021
0.552395
0.424355
0.144929
0.000427554
0.000288774
0.000264711
0.000631553
0.00244729
0.0212692
0.0859935
0.117956
0.340342
0.883911
0.899723
4.94555e-05
4.94555e-05
5.43947e-05
0.000158098
0.0787598
0.486286
0.562004
0.557712
0.315001
0.101512
0.00200849
0.0332604
0.285972
0.47386
0.673339
0.652228
0.598055
0.572558
0.807525
6.88288e-05
0.000196787
0.000318686
0.00033141
0.000419797
0.0373911
0.26913
0.455106
0.580077
0.53557
0.347939
0.591717
0.759632
0.765313
0.766204
0.641013
0.239178
0.2394
0.604701
0.000265547
0.000259848
0.000239595
0.000265838
0.000557935
0.0161902
0.156868
0.451715
0.724061
0.722644
0.720116
0.718703
0.68674
0.765513
0.772707
0.483257
0.240227
0.239266
0.732108
0.000140735
8.21745e-05
0.000105144
0.000355389
0.00208755
0.127669
0.621519
0.724255
0.724061
0.72405
0.640161
0.212681
0.121321
0.367278
0.771165
0.922995
0.570102
0.375662
0.938689
9.061e-07
4.00778e-06
6.11924e-05
0.000824505
0.00207293
0.000746853
0.000620732
0.133968
0.25188
0.198872
0.0332892
0.0341792
0.0356381
0.0378965
0.215824
0.936467
0.938293
0.901105
0.938689
7.44712e-08
5.8076e-07
2.55229e-05
0.000292184
0.000364218
2.50683e-05
0.000131054
0.000677278
0.00589859
0.00408951
0.0285123
0.106825
0.118635
0.0422241
0.0607076
0.643382
0.938598
0.938594
0.937642
5.90266e-09
6.39356e-08
3.35303e-06
3.61698e-05
6.19224e-05
1.74391e-05
0.000118963
0.000452679
0.000248405
0.000420077
0.026313
0.165473
0.171611
0.145025
0.105525
0.514514
0.938293
0.938613
0.790444
1.01451e-09
7.0944e-09
2.76871e-07
8.45401e-07
5.11698e-07
4.17948e-07
2.68054e-05
8.41743e-05
4.81061e-05
3.75395e-05
7.93871e-05
0.0136838
0.157299
0.215501
0.224905
0.387763
0.813546
0.937877
0.79241
6.92136e-10
1.17177e-09
9.34736e-09
3.64495e-08
4.06613e-08
2.06845e-08
4.68294e-07
4.47021e-07
8.59964e-07
1.5304e-05
1.82122e-05
4.51894e-05
0.000138005
0.105542
0.149593
0.0953263
0.207203
0.695908
0.790928
8.81579e-10
1.48842e-09
2.21166e-09
5.28995e-09
6.66191e-09
7.46034e-09
1.2879e-08
3.86524e-08
4.86981e-08
9.89584e-07
1.49144e-05
1.64713e-05
3.56578e-05
0.000109468
0.0112417
0.00380119
0.017391
0.269627
0.636025
6.76498e-10
1.56839e-09
2.62355e-09
3.37569e-09
5.37996e-09
6.59127e-09
7.41439e-09
1.31808e-08
3.14251e-08
3.64113e-08
2.89769e-05
3.20914e-05
3.23459e-05
3.53016e-05
4.88646e-05
0.000162118
0.0219827
0.14516
0.204637
2.67678e-10
8.68849e-10
1.79708e-09
2.08916e-09
1.15138e-08
1.97035e-07
4.34532e-07
6.97934e-08
3.63176e-08
3.38025e-08
8.26396e-06
7.15847e-05
3.90764e-05
3.92387e-05
4.41225e-05
6.82879e-05
0.00227844
0.094231
0.191604
1.15844e-10
2.22408e-10
4.77685e-10
4.94766e-10
5.25824e-10
5.82817e-07
6.49155e-07
1.52916e-07
3.37583e-08
3.38025e-08
3.37698e-08
7.09719e-05
9.07338e-05
4.83705e-05
5.00799e-05
6.69871e-05
0.000245885
0.0415364
0.286156
1.1997e-10
1.44338e-10
1.51862e-10
1.58643e-10
1.10303e-09
1.23369e-07
3.23939e-07
3.11917e-07
3.38042e-08
3.37461e-08
3.38076e-08
6.27684e-05
9.07338e-05
9.06978e-05
6.49198e-05
4.84302e-05
0.00215619
0.012731
0.274941
1.63518e-10
1.80503e-10
1.74686e-10
1.98992e-10
2.01406e-10
5.2466e-08
7.96861e-08
1.6197e-06
1.56664e-06
2.11903e-07
5.11267e-08
6.57927e-08
7.53875e-05
9.33191e-05
9.33191e-05
4.31291e-05
0.00402552
0.00511006
0.0234169
2.27413e-10
2.721e-10
2.62e-10
2.45566e-10
2.2229e-10
2.2699e-10
1.46873e-06
1.79703e-06
1.80039e-06
9.62206e-07
6.57927e-08
9.36202e-08
4.05489e-05
9.33191e-05
9.28953e-05
2.75868e-05
0.00396009
0.00280577
0.00725377
2.34171e-10
3.73639e-10
3.83327e-10
3.24396e-10
2.26791e-10
3.37929e-09
4.45562e-07
1.79936e-06
1.80039e-06
1.80039e-06
2.97367e-07
1.48061e-07
1.65999e-07
7.14431e-05
6.88623e-05
9.11824e-06
0.00371798
0.00272753
0.115276
2.14702e-10
4.26943e-10
5.49417e-10
5.52512e-10
3.09965e-10
7.31979e-10
8.06028e-10
3.94947e-07
1.79672e-06
1.79772e-06
7.87912e-07
1.65987e-07
1.50882e-07
1.6741e-05
7.32008e-06
7.61268e-06
0.00270092
0.0027793
0.124441
1.61006e-10
4.09077e-10
5.37436e-10
4.79595e-10
1.4286e-08
7.45327e-08
6.75037e-08
6.88188e-08
8.63087e-07
1.79504e-06
1.77092e-06
5.86923e-07
1.19581e-07
1.35556e-05
7.20799e-06
7.4191e-06
0.00274602
0.000880168
0.124473
1.11547e-10
3.52067e-10
4.89139e-10
4.79844e-10
2.70353e-09
2.65997e-08
1.21904e-07
1.47406e-07
1.49361e-07
1.5502e-06
1.74384e-06
1.21644e-06
8.33087e-08
7.40438e-06
7.32008e-06
0.000109544
0.00187628
4.65667e-05
0.124152
8.31016e-11
2.86753e-10
4.23741e-10
4.98594e-10
4.16959e-09
4.19422e-09
5.04804e-08
2.51553e-07
2.96458e-07
3.39869e-07
1.14291e-06
5.86092e-07
7.19276e-08
1.53575e-05
8.65179e-06
0.000188049
3.72366e-05
4.36741e-05
0.123825
5.19413e-11
2.03682e-10
3.54758e-10
4.3048e-10
1.47211e-09
9.4567e-09
2.5068e-08
1.08876e-07
4.65279e-08
1.95022e-08
5.17723e-08
5.46014e-08
7.1716e-08
2.62743e-05
1.05019e-05
1.44857e-05
2.04479e-05
3.46354e-05
0.123005
1.85335e-11
9.22514e-11
1.89352e-10
3.18204e-10
4.90633e-09
1.14477e-08
1.55483e-07
1.02303e-07
1.95578e-08
1.95022e-08
7.5232e-08
5.70702e-08
8.02935e-06
2.61444e-05
7.02233e-06
7.03076e-06
0.000301906
4.36871e-05
0.0730134
2.90041e-12
2.15288e-11
4.75385e-11
3.18731e-10
4.61671e-09
1.74552e-11
5.75001e-07
1.47435e-06
1.32531e-07
1.95522e-08
8.10941e-08
5.70587e-08
1.14989e-05
9.34882e-06
1.21755e-06
0.00159975
0.00340944
0.000164757
0.0164707
2.427e-13
3.89332e-12
1.28253e-11
2.12783e-10
2.2493e-09
3.70221e-12
5.77724e-07
1.70429e-06
1.68098e-06
1.54037e-07
5.70587e-08
5.70702e-08
5.42183e-05
2.72296e-05
5.87898e-07
0.00376836
0.00380958
0.000283403
0.0497501
1.88377e-14
7.87135e-13
7.95626e-12
7.13e-11
4.74366e-10
8.82377e-13
5.51419e-08
1.05079e-06
1.6172e-06
2.77308e-07
1.51917e-05
3.78569e-05
5.42482e-05
2.90765e-05
5.20818e-08
0.00133274
0.0038297
0.000311057
0.093785
2.14248e-15
1.40726e-13
4.8095e-12
2.41754e-11
3.71246e-11
6.80279e-13
1.30771e-08
2.95215e-08
7.01566e-07
1.82955e-10
9.96797e-06
4.06337e-05
3.21122e-05
1.92371e-06
1.43767e-11
5.73443e-13
0.00316678
0.00036111
0.0955293
4.01826e-16
2.43675e-14
1.76491e-12
6.49006e-12
5.09652e-12
6.64235e-13
5.25487e-10
1.25481e-09
1.68771e-10
1.74644e-10
6.92619e-07
7.605e-07
8.13758e-15
4.14655e-14
1.60133e-16
1.59161e-14
0.000326767
0.000355471
0.101625
7.76966e-17
3.6101e-15
2.40051e-13
5.93856e-13
1.67667e-12
6.63746e-13
5.7547e-11
1.79108e-10
1.68594e-10
2.00409e-09
2.69678e-13
6.65972e-15
1.92537e-16
6.38866e-18
4.80006e-19
6.83688e-18
1.59161e-14
0.000836045
0.109136
1.03344e-17
2.82348e-16
7.9928e-15
1.32116e-14
4.07228e-13
2.04679e-13
4.35647e-11
1.02663e-10
1.01589e-10
9.74917e-11
6.63416e-12
1.47599e-16
1.26067e-20
5.35903e-23
4.56608e-23
4.63234e-19
2.52719e-13
0.00213172
0.109165
7.73859e-19
1.0057e-17
8.36845e-17
5.08214e-16
3.01381e-14
8.69891e-15
6.28819e-12
3.89567e-12
1.42059e-12
2.17297e-20
1.35841e-22
5.77461e-23
3.43127e-25
7.92745e-27
1.84235e-30
5.67636e-23
4.09674e-12
0.00215543
0.109165
2.9539e-20
2.37081e-19
1.8935e-18
4.96411e-17
3.75116e-16
2.88772e-17
5.66012e-14
3.81327e-15
4.25833e-21
3.34296e-23
3.1969e-26
3.66874e-29
8.48186e-30
5.60118e-32
6.73889e-33
1.04835e-16
2.03542e-17
0.000367329
0.109165
3.58749e-22
2.48667e-21
2.92193e-20
1.62317e-18
1.82274e-18
2.82503e-18
1.94506e-17
2.06757e-18
5.85618e-21
1.13085e-31
7.30721e-28
5.29359e-31
3.25175e-37
4.90113e-40
3.47793e-35
2.50097e-09
0
0
0.0897125
)
;

boundaryField
{
    leftWall
    {
        type            zeroGradient;
    }
    rightWall
    {
        type            zeroGradient;
    }
    lowerWall
    {
        type            zeroGradient;
    }
    atmosphere
    {
        type            inletOutlet;
        inletValue      uniform 0;
        value           nonuniform List<scalar> 
46
(
7.38568e-64
4.64031e-64
4.76922e-64
4.09197e-62
7.81457e-60
1.22157e-57
9.03236e-56
3.00609e-54
7.9016e-53
7.9365e-52
3.51703e-51
1.16962e-50
2.07143e-48
2.93352e-46
3.71659e-44
3.8418e-42
4.06653e-40
4.40675e-38
4.21138e-36
3.63499e-34
3.62162e-32
3.9235e-30
1.43465e-28
1.2404e-27
5.24051e-26
1.42079e-24
2.36903e-23
3.58749e-22
2.48667e-21
2.92193e-20
1.62317e-18
1.82274e-18
0
0
0
0
0
0
0
0
0
0
0
0
0
0
)
;
    }
    defaultFaces
    {
        type            empty;
    }
}


// ************************************************************************* //
