/*--------------------------------*- C++ -*----------------------------------*\
  =========                 |
  \\      /  F ield         | OpenFOAM: The Open Source CFD Toolbox
   \\    /   O peration     | Website:  https://openfoam.org
    \\  /    A nd           | Version:  13
     \\/     M anipulation  |
\*---------------------------------------------------------------------------*/
FoamFile
{
    format      ascii;
    class       surfaceScalarField;
    location    "0.6";
    object      alphaPhi.water;
}
// * * * * * * * * * * * * * * * * * * * * * * * * * * * * * * * * * * * * * //

dimensions      [0 3 -1 0 0 0 0];

internalField   nonuniform List<scalar> 
4432
(
-3.17224e-06
3.17224e-06
-5.70334e-06
2.53111e-06
-6.04464e-06
3.41294e-07
-4.98025e-06
-1.06439e-06
-2.6182e-06
-2.36205e-06
1.01009e-06
-3.62829e-06
5.16783e-06
-4.15773e-06
8.79939e-06
-3.63156e-06
1.12457e-05
-2.44629e-06
1.24302e-05
-1.18448e-06
1.25356e-05
-1.05417e-07
1.17572e-05
7.78339e-07
1.03054e-05
1.45188e-06
8.29281e-06
2.01255e-06
5.64176e-06
2.65106e-06
2.09519e-06
3.54657e-06
-2.49382e-06
4.58901e-06
-7.08471e-06
4.64875e-06
-9.70181e-06
3.1474e-06
-1.46977e-05
4.66327e-06
-2.07268e-05
5.19637e-06
-1.61363e-05
-4.58976e-06
-1.61355e-05
-3.68361e-06
6.85584e-06
-5.44065e-06
4.28815e-06
-5.39654e-06
2.97193e-07
-4.49964e-06
-1.9613e-06
-2.4272e-06
-4.43449e-06
1.03435e-06
-7.08984e-06
5.21686e-06
-8.34024e-06
8.90931e-06
-7.32401e-06
1.137e-05
-4.90694e-06
1.25552e-05
-2.36974e-06
1.28301e-05
-3.80277e-07
1.25731e-05
1.03535e-06
1.20002e-05
2.02478e-06
1.12158e-05
2.79697e-06
1.02103e-05
3.65655e-06
8.71081e-06
5.04606e-06
6.06817e-06
7.23166e-06
1.32671e-06
9.39022e-06
-5.02204e-06
9.97379e-06
-1.15925e-05
1.08998e-05
-1.52704e-05
8.17641e-06
-1.09014e-05
-8.95797e-06
-2.70361e-05
-2.76616e-06
9.622e-06
-4.01011e-06
5.53209e-06
-4.15892e-06
4.46006e-07
-3.79179e-06
-2.32843e-06
-2.29978e-06
-5.9265e-06
8.33997e-07
-1.02236e-05
4.92383e-06
-1.24301e-05
8.62346e-06
-1.10236e-05
1.10551e-05
-7.33854e-06
1.21594e-05
-3.47409e-06
1.22815e-05
-5.0236e-07
1.18134e-05
1.50347e-06
1.10515e-05
2.78664e-06
1.02271e-05
3.62139e-06
9.54166e-06
4.34198e-06
9.18049e-06
5.40722e-06
9.08586e-06
7.3263e-06
8.02934e-06
1.04467e-05
4.63984e-06
1.33633e-05
-6.21174e-07
1.69503e-05
-4.63163e-06
1.19992e-05
-3.44856e-06
-9.95952e-06
-3.04116e-05
-1.39108e-06
1.10131e-05
-1.88206e-06
6.02308e-06
-2.10107e-06
6.65008e-07
-1.96762e-06
-2.46188e-06
-7.05888e-07
-7.18823e-06
1.9422e-06
-1.28717e-05
5.40853e-06
-1.58964e-05
8.52988e-06
-1.4145e-05
1.05834e-05
-9.39207e-06
1.15033e-05
-4.39394e-06
1.15517e-05
-5.50825e-07
1.10607e-05
1.99452e-06
1.03041e-05
3.54326e-06
9.49777e-06
4.42768e-06
8.81143e-06
5.02832e-06
8.4299e-06
5.78874e-06
8.75196e-06
7.00424e-06
9.82375e-06
9.37495e-06
1.06342e-05
1.25528e-05
1.0565e-05
1.70196e-05
8.14503e-06
1.42361e-05
5.02487e-06
-6.81688e-06
-2.52522e-05
4.85265e-07
1.05278e-05
1.27201e-06
5.23634e-06
1.66466e-06
2.72354e-07
2.47983e-06
-3.27705e-06
4.12149e-06
-8.82989e-06
6.23302e-06
-1.49832e-05
8.17708e-06
-1.78405e-05
9.60777e-06
-1.55757e-05
1.04329e-05
-1.02172e-05
1.07452e-05
-4.70623e-06
1.06235e-05
-4.2916e-07
1.01597e-05
2.45837e-06
9.5178e-06
4.18511e-06
8.89076e-06
5.05471e-06
8.41395e-06
5.50514e-06
8.15099e-06
6.0517e-06
8.32699e-06
6.82825e-06
9.52448e-06
8.17745e-06
1.19857e-05
1.00916e-05
1.53234e-05
1.36819e-05
1.58425e-05
1.39483e-05
1.07287e-05
-1.61044e-06
-1.45413e-05
2.97195e-06
7.55587e-06
5.71716e-06
2.49114e-06
7.79737e-06
-1.80786e-06
1.03144e-05
-5.79413e-06
1.26984e-05
-1.12139e-05
1.37145e-05
-1.59992e-05
1.32944e-05
-1.74204e-05
1.22346e-05
-1.45158e-05
1.11424e-05
-9.125e-06
1.02995e-05
-3.86329e-06
9.71145e-06
1.58893e-07
9.1799e-06
2.98991e-06
8.65545e-06
4.70956e-06
8.2433e-06
5.46686e-06
8.04306e-06
5.70538e-06
8.03927e-06
6.05549e-06
8.32899e-06
6.53853e-06
9.28976e-06
7.21667e-06
1.1369e-05
8.01236e-06
1.51926e-05
9.8583e-06
1.75477e-05
1.15931e-05
1.26822e-05
3.24929e-06
-1.86143e-06
5.44649e-06
2.10938e-06
1.09588e-05
-3.02106e-06
1.64046e-05
-7.2543e-06
2.10234e-05
-1.04137e-05
2.28713e-05
-1.30616e-05
2.15049e-05
-1.4631e-05
1.84238e-05
-1.43364e-05
1.52287e-05
-1.13198e-05
1.25883e-05
-6.48387e-06
1.06293e-05
-1.90402e-06
9.27195e-06
1.51633e-06
8.38144e-06
3.88038e-06
7.80635e-06
5.28465e-06
7.57685e-06
5.69637e-06
7.67669e-06
5.60554e-06
7.93542e-06
5.79676e-06
8.42628e-06
6.04767e-06
9.4358e-06
6.20715e-06
1.09731e-05
6.47503e-06
1.38112e-05
7.02025e-06
1.64938e-05
8.91052e-06
1.39473e-05
5.79575e-06
1.20845e-05
8.27672e-06
-6.16872e-06
1.81446e-05
-1.27223e-05
2.61067e-05
-1.40491e-05
2.92188e-05
-1.20517e-05
2.77036e-05
-1.00643e-05
2.38835e-05
-9.54865e-06
1.96657e-05
-9.83815e-06
1.60949e-05
-7.70694e-06
1.33912e-05
-3.75834e-06
1.1532e-05
-3.71902e-08
9.92605e-06
3.12228e-06
8.53168e-06
5.27441e-06
7.49359e-06
6.32273e-06
7.025e-06
6.16494e-06
7.2092e-06
5.42135e-06
7.63266e-06
5.3733e-06
8.32349e-06
5.35684e-06
9.58593e-06
4.94472e-06
1.1186e-05
4.87498e-06
1.31933e-05
5.01298e-06
1.50687e-05
7.03513e-06
1.32592e-05
7.60526e-06
2.53422e-05
-1.55976e-05
1.02541e-05
-3.57951e-05
7.33742e-06
-1.20293e-05
-3.38966e-05
2.9458e-05
-4.57564e-05
4.26512e-05
-3.35086e-05
2.74993e-05
1.07637e-06
-4.76656e-06
4.38631e-05
-7.5915e-05
6.69728e-05
-0.000112234
3.21522e-05
-0.000119396
2.75557e-06
-0.000119471
-2.52154e-06
-0.000119726
-2.99641e-06
-0.00012142
-2.93632e-06
-0.000121059
-4.79181e-06
-0.000115163
-8.98748e-06
-0.000103195
-1.46146e-05
-7.33064e-05
-3.28756e-05
-1.33577e-05
-6.25929e-05
-1.5567e-05
-1.27741e-05
1.76847e-05
-1.99541e-05
9.3923e-06
3.85197e-06
-5.77026e-05
2.64784e-05
-6.83827e-05
5.20412e-05
-7.06047e-05
1.55663e-05
1.44338e-05
-5.46908e-05
0.000120424
-6.33557e-05
6.48134e-05
-4.56762e-05
8.77872e-06
-4.65216e-05
-9.92425e-09
-5.55365e-05
-1.03404e-07
-6.81754e-05
-3.38748e-07
-8.1908e-05
-9.32583e-07
-9.47253e-05
-2.39044e-06
-0.000105625
-6.13114e-06
-0.000111745
-1.50588e-05
-8.7073e-05
-6.256e-05
-2.78547e-05
-0.000123506
-4.49695e-05
-5.96502e-06
4.78488e-05
2.45301e-06
1.3616e-06
1.91506e-05
-7.44001e-05
4.13136e-05
-9.05456e-05
6.19685e-05
-9.12596e-05
1.62851e-05
4.10854e-05
-4.63452e-05
0.000132457
-8.38208e-06
2.68296e-06
-8.47283e-08
6.71041e-07
-1.19882e-07
2.0326e-08
-2.418e-07
1.36764e-08
-5.82633e-07
-2.33875e-09
-1.47736e-06
-4.20277e-08
-3.67466e-06
-2.00998e-07
-8.98463e-06
-8.42277e-07
-2.76893e-05
-4.33353e-06
-7.16066e-05
-2.93718e-05
-3.94264e-05
-0.000167061
-8.43958e-05
-6.10468e-07
6.27762e-05
1.65065e-05
-1.57551e-05
3.34206e-05
-9.13141e-05
5.30101e-05
-0.000110135
7.08305e-05
-0.00010908
4.08839e-05
4.18952e-05
5.44589e-06
8.69242e-05
-6.08199e-07
3.76155e-06
-5.79662e-08
1.16344e-07
-7.52156e-08
3.26785e-08
-9.44834e-08
2.80564e-08
-1.12343e-07
1.06829e-08
-1.4697e-07
-1.17942e-08
-2.88939e-07
-5.82589e-08
-8.90349e-07
-1.90306e-07
-3.72583e-06
-1.46409e-06
-2.4855e-05
-9.769e-06
-4.58607e-05
-0.000157404
-0.000130256
6.62895e-06
5.61782e-05
2.84599e-05
-3.75513e-05
4.46733e-05
-0.000107525
5.9171e-05
-0.000124633
7.40186e-05
-0.000123927
4.33097e-05
3.3444e-05
5.50018e-07
8.43624e-05
-2.98736e-08
6.03382e-06
-8.03521e-08
1.76631e-07
-1.9541e-07
1.47432e-07
-2.32926e-07
1.20337e-07
-1.48781e-07
1.7442e-08
-1.21173e-07
-2.34308e-08
-1.15096e-07
-3.32305e-08
-1.98969e-07
-7.06539e-08
-1.03145e-06
-4.42553e-07
-4.92173e-06
-4.40967e-06
-4.40914e-05
-0.000127984
-0.000174348
1.576e-05
4.04167e-05
3.9469e-05
-6.12504e-05
5.17908e-05
-0.000119843
6.14676e-05
-0.000134309
7.0495e-05
-0.000132955
2.30868e-05
3.95234e-05
0
0.000154314
-2.82516e-08
6.89006e-06
-1.22539e-07
2.36924e-07
-2.41148e-07
2.76284e-07
-2.68099e-07
1.57131e-07
-2.63705e-07
2.42036e-08
-1.34942e-07
-6.58267e-08
-6.06476e-08
-8.65188e-08
-6.42445e-08
-3.41954e-08
-3.51211e-07
-1.2292e-07
-2.02338e-06
-1.75308e-06
-3.79192e-05
-0.000100175
-0.000212266
2.81009e-05
1.23117e-05
4.85981e-05
-8.17588e-05
5.44349e-05
-0.00012568
6.08114e-05
-0.000140686
6.14072e-05
-0.00013355
2.02446e-05
6.41401e-05
1.22735e-06
0.000326094
-1.37018e-07
6.19722e-06
-2.09216e-07
3.12747e-07
-2.48096e-07
3.82197e-07
-2.77747e-07
1.97824e-07
-2.77611e-07
3.42006e-08
-2.50804e-07
-8.14792e-08
-5.76589e-08
-1.21405e-07
-3.27971e-08
-3.98627e-08
-1.10351e-07
-3.92007e-08
-1.87548e-06
-3.48565e-07
-2.9645e-05
-8.02378e-05
-0.00024191
4.1745e-05
-2.94359e-05
5.32888e-05
-9.33055e-05
5.31751e-05
-0.000125566
5.81002e-05
-0.000145615
5.05586e-05
-0.000119336
1.99279e-05
9.00788e-05
-8.06967e-07
0.000310207
-2.22542e-07
4.298e-06
-3.21854e-07
4.40744e-07
-2.44357e-07
3.14448e-07
-2.75086e-07
2.39197e-07
-2.51686e-07
2.1712e-08
-1.11494e-07
-2.33301e-08
-3.78156e-08
-6.34519e-08
-6.86309e-09
-5.18038e-08
-1.57878e-08
-2.41459e-08
-3.75722e-07
-1.92063e-08
-2.02917e-05
-6.82412e-05
-0.000262195
1.65426e-05
-2.38757e-12
1.99508e-05
-2.27225e-08
1.9155e-05
-6.23301e-07
1.64695e-05
-1.0352e-06
1.59287e-05
-1.61616e-06
1.65755e-05
-1.98475e-06
1.71841e-05
-2.87262e-06
1.70846e-05
-2.80589e-06
1.79339e-05
-2.01784e-06
1.95637e-05
-5.55126e-07
2.04353e-05
1.97107e-06
1.94888e-05
6.2208e-06
1.78668e-05
7.9447e-06
1.70393e-05
6.9925e-06
1.73782e-05
5.08241e-06
1.73684e-05
5.38315e-06
1.78482e-05
4.87693e-06
2.01476e-05
2.6454e-06
2.40561e-05
9.66496e-07
2.91055e-05
-3.6481e-08
3.65194e-05
-3.78695e-07
4.70242e-05
-2.89959e-06
3.39031e-06
6.8977e-05
3.17509e-13
-2.4489e-12
-2.27187e-08
0
-6.46049e-07
0
-2.14775e-06
-1.5164e-14
-3.66809e-06
-3.49227e-13
-4.18827e-06
-5.80711e-12
-4.83178e-06
-7.9882e-11
-5.30335e-06
-9.48008e-10
-5.20848e-06
-1.01586e-08
-4.05678e-06
-9.95834e-08
-1.80119e-06
-6.02308e-07
3.07606e-06
-5.12559e-07
1.1531e-05
-4.9347e-07
1.8334e-05
9.14467e-07
2.14102e-05
2.11091e-06
2.01398e-05
6.65352e-06
1.89789e-05
6.03782e-06
2.07978e-05
8.26543e-07
2.43415e-05
-2.57733e-06
2.82486e-05
-3.94333e-06
3.33741e-05
-5.50426e-06
3.87522e-05
-8.27771e-06
-9.24322e-06
5.13899e-05
-5.16637e-12
-7.20077e-13
-2.61513e-10
2.72718e-11
-8.40231e-16
0
-1.60951e-14
-3.75665e-17
-3.63339e-13
-2.18746e-15
-6.18345e-12
0
-8.61471e-11
0
-1.03433e-09
9.06197e-14
-1.11927e-08
-2.3812e-13
-1.10771e-07
-5.11967e-12
-7.12989e-07
-9.05889e-11
-2.29185e-06
-1.30175e-09
-4.35659e-06
-1.63478e-08
-5.38214e-06
-1.73151e-07
-3.89265e-06
-1.29351e-06
1.8846e-06
-1.55283e-06
1.04854e-05
-1.35125e-06
2.21694e-05
-4.23574e-06
2.92498e-05
-5.29405e-06
3.30021e-05
-5.93088e-06
3.81269e-05
-9.18125e-06
4.45276e-05
-1.37797e-05
-1.60464e-05
5.1352e-05
-4.00465e-12
7.46712e-14
-4.74045e-12
0
-5.25132e-17
0
-2.70089e-16
5.0427e-17
-2.04021e-15
3.53905e-17
-2.33956e-14
1.66875e-15
-9.41925e-14
2.5385e-15
-6.21781e-15
1.20338e-16
-2.42035e-13
1.26137e-15
-5.3553e-12
-1.22283e-14
-9.53542e-11
-6.37474e-13
-1.39669e-09
-3.56286e-13
-1.77423e-08
-2.09664e-12
-1.90875e-07
-1.79851e-11
-1.48392e-06
-4.6824e-10
-2.49055e-06
-8.5701e-10
-3.64276e-06
-5.94173e-10
-5.11082e-06
-3.45153e-10
-3.19033e-06
-7.19317e-10
6.20492e-07
-6.09516e-09
5.95681e-06
-7.83096e-08
1.31908e-05
-9.46637e-07
-5.23445e-06
2.03673e-05
-1.30462e-13
0
-4.34486e-14
0
8.27474e-14
2.69614e-15
1.81743e-16
5.72846e-15
4.54867e-18
5.83854e-17
2.54876e-17
1.80234e-16
1.18715e-16
1.88929e-16
3.79318e-16
1.4349e-16
1.35344e-15
5.33155e-16
2.44499e-13
2.58847e-13
-3.80432e-14
1.67386e-12
-5.7144e-13
1.58024e-13
-1.7538e-12
-9.33368e-13
-1.62067e-11
-3.55609e-12
-3.66248e-11
-4.47869e-10
-5.12536e-11
-8.40683e-10
-6.38223e-11
-5.71879e-10
-1.10279e-10
-2.81792e-10
-5.41873e-10
-2.6941e-10
-6.37985e-09
-2.42777e-10
-8.43677e-08
-2.97392e-10
-1.02811e-06
-2.86851e-09
-7.91418e-09
-4.50448e-06
-2.36045e-16
3.61659e-18
1.92339e-16
0
2.28724e-15
3.26202e-17
2.06807e-16
4.92486e-17
-9.27206e-19
6.94715e-17
2.78309e-17
1.43838e-16
5.29045e-17
1.82655e-16
-7.52983e-17
2.4286e-16
-5.49321e-13
2.20559e-13
-6.8076e-13
-3.17929e-13
2.75595e-12
-1.68771e-12
3.79596e-12
-1.56016e-12
2.19126e-12
-4.01349e-13
-1.50585e-11
8.32138e-13
-3.35232e-10
-3.33023e-11
-4.15856e-10
-3.94781e-10
-4.41364e-10
-4.09418e-10
-3.84364e-10
-2.359e-10
-3.43201e-10
-2.18992e-10
-3.88998e-10
-1.73225e-10
-5.01125e-10
-1.65687e-10
-8.76957e-10
-2.47083e-09
-5.44976e-09
-3.32819e-09
-1.00207e-18
1.66307e-19
1.6356e-18
2.41495e-19
1.86753e-17
2.4009e-18
4.22876e-18
1.31723e-17
7.49726e-18
1.03728e-16
2.43677e-17
2.48606e-16
4.10925e-17
2.9304e-16
1.03648e-16
1.53353e-16
-3.69827e-13
3.10043e-13
-3.62383e-12
1.24277e-12
-5.31372e-12
7.73172e-14
-5.05304e-12
-1.15142e-12
-4.92842e-13
-1.1447e-13
-3.56622e-12
2.48055e-13
-1.25091e-10
-7.0715e-12
-2.47577e-10
-2.08622e-12
-1.62651e-10
-3.43066e-16
-3.06555e-10
-1.39724e-13
-2.23603e-10
-7.15132e-12
0
-8.70971e-11
-1.09006e-10
-1.65354e-10
-2.45074e-09
-4.13698e-09
-1.07367e-08
-3.63665e-09
-7.52296e-21
3.75586e-21
-1.09837e-20
1.95254e-21
2.07614e-19
1.51055e-19
1.37316e-18
9.78058e-18
6.63055e-18
1.05736e-16
1.8048e-17
2.60231e-16
1.56905e-17
3.27706e-16
0
3.36151e-16
-5.49182e-14
5.61035e-15
-2.19009e-12
5.76732e-15
-1.33712e-12
2.00252e-13
-1.92524e-13
-1.88761e-15
-1.96299e-12
-4.71814e-14
-5.35836e-12
4.01495e-13
-1.53352e-14
-5.78402e-12
-3.24432e-16
-2.10335e-12
-2.50656e-15
-2.82771e-16
-1.35385e-13
-8.96705e-15
-6.8203e-12
-5.43237e-13
-6.79593e-11
-2.56232e-11
0
-3.33511e-10
-6.1953e-09
-2.81769e-09
-1.43066e-08
-2.60901e-09
-1.23516e-22
8.28528e-23
-1.74101e-22
2.06123e-23
3.76104e-21
2.13121e-20
2.38164e-19
3.98798e-18
1.74016e-18
5.89849e-17
8.58827e-18
1.92912e-16
1.44537e-17
2.84821e-16
8.53679e-18
3.5873e-16
-4.47288e-16
5.93304e-16
-4.19491e-15
1.1522e-16
-6.18426e-15
0
-2.04821e-13
1.0875e-15
-2.35387e-12
-2.27884e-15
-1.215e-11
-5.76846e-13
-1.32556e-12
-2.86388e-12
-1.22646e-14
-3.11041e-13
-1.29287e-14
-6.47591e-16
0
-2.35091e-14
0
-3.14916e-12
-1.7917e-12
-2.41241e-11
0
-1.44554e-10
-1.11691e-09
-2.98729e-10
-9.72474e-09
-6.13922e-09
-1.8849e-24
2.02705e-24
-1.00107e-23
1.73028e-24
-2.46335e-21
4.7374e-21
-1.52788e-19
8.4925e-19
-1.03936e-18
1.52891e-17
-1.14787e-18
7.16904e-17
1.38649e-18
1.54706e-16
1.28361e-18
2.36995e-16
-5.5104e-17
7.46693e-16
-4.32817e-16
1.92446e-15
-1.37349e-15
3.09486e-15
0
5.01435e-15
-4.33544e-14
1.2648e-14
-5.8891e-12
1.18365e-15
-2.93898e-12
-9.3268e-17
-6.12198e-14
-8.83261e-17
-6.23104e-14
-4.97388e-17
-8.61347e-14
-2.24515e-16
-2.09241e-11
-1.4166e-13
-6.88355e-12
-8.56395e-12
0
-5.19567e-12
-9.3249e-11
-7.5877e-11
-6.14609e-09
-1.43311e-08
-4.20257e-26
1.23922e-25
-1.91113e-24
3.93842e-25
-1.41656e-21
1.1392e-21
-9.17635e-20
1.96983e-19
-8.50013e-19
3.15832e-18
-2.95587e-18
1.51386e-17
-4.56836e-18
4.28319e-17
-1.10093e-17
8.64061e-17
-3.3056e-16
7.95298e-16
-1.51276e-15
7.11049e-15
-6.43897e-15
1.47692e-14
-3.74714e-14
2.32661e-14
-2.10512e-15
2.92597e-14
-7.55348e-17
1.97889e-17
-9.78415e-17
0
-1.23736e-16
6.64733e-19
-9.83206e-17
-5.10754e-18
-5.31058e-16
-8.88995e-18
-1.41046e-13
-1.70655e-15
-9.89677e-13
-1.37912e-13
-4.4571e-12
-2.63688e-12
-8.66241e-11
-1.56468e-11
-3.99202e-10
-2.46442e-08
-2.82136e-27
7.25337e-26
-3.18589e-25
7.97404e-26
-4.74672e-22
2.02567e-22
-3.13031e-20
4.25734e-20
-2.75286e-19
6.50911e-19
-1.21456e-18
2.90988e-18
-3.30323e-18
1.14727e-17
-1.04838e-17
3.9125e-17
-2.37583e-16
1.56698e-16
-2.75056e-15
3.04013e-15
-1.61167e-14
1.70863e-14
-1.93745e-14
3.05013e-14
-3.29607e-15
1.10946e-14
-7.28285e-16
9.07605e-16
-1.80089e-16
2.24456e-16
-7.79485e-17
2.88926e-17
-4.52518e-17
4.95397e-18
-3.41479e-17
1.37809e-18
-1.73144e-15
-1.83376e-18
-2.34733e-13
-3.77545e-16
-6.87564e-12
-1.62547e-13
-9.29963e-12
-1.58125e-12
-5.10278e-12
-4.20603e-10
-1.26589e-27
6.1848e-26
-4.30696e-26
1.22127e-26
-1.05831e-22
3.01959e-23
-7.63319e-21
7.13828e-21
-6.29367e-20
1.1554e-19
-4.10419e-19
5.61845e-19
-2.46792e-18
3.55489e-18
-6.01227e-18
1.65638e-17
-3.98991e-17
3.68923e-17
-1.67913e-15
3.9949e-16
-1.49753e-14
6.44301e-15
-1.61734e-14
1.86583e-14
-4.84576e-15
6.71236e-15
-1.23273e-15
2.17152e-15
-2.06541e-16
4.19684e-16
-3.07095e-17
4.79456e-17
-1.96844e-17
4.19971e-18
-2.51818e-17
3.39045e-18
-4.08996e-17
4.99757e-18
-3.50555e-16
1.08267e-17
-1.64143e-13
0
-1.76862e-12
-4.62666e-15
1.79887e-14
-7.72213e-12
-3.5184e-28
4.10962e-26
-6.37904e-27
1.93275e-27
-1.92067e-23
4.78693e-24
-1.4465e-21
1.03206e-21
-1.11965e-20
1.66306e-20
-8.95121e-20
8.36639e-20
-9.24591e-19
7.66274e-19
-3.43053e-18
6.4405e-18
-1.89789e-17
2.99258e-17
-4.69921e-16
1.24776e-16
-3.07692e-15
5.28173e-16
-3.65467e-15
8.49411e-16
-2.99289e-15
1.06871e-15
-5.91091e-16
1.53775e-15
-4.18779e-17
1.20556e-16
-9.61315e-18
4.53503e-18
-1.01782e-17
2.11045e-18
-1.46891e-17
2.55311e-18
-8.97478e-17
1.49137e-17
-1.27881e-15
1.50378e-16
-2.98662e-15
1.31036e-15
0
5.92692e-15
2.78631e-14
-2.51196e-13
-4.7824e-29
9.97077e-27
-1.10586e-27
3.46768e-28
-2.97302e-24
7.58939e-25
-2.17957e-22
1.24801e-22
-1.57801e-21
1.94303e-21
-1.29831e-20
1.01952e-20
-2.09793e-19
1.4589e-19
-2.98702e-18
2.57214e-18
-2.34306e-17
2.49088e-17
-7.34166e-17
4.8001e-17
-7.58318e-17
1.99379e-17
-1.01299e-16
6.07606e-18
-2.63614e-16
9.35545e-18
-7.75541e-17
4.28531e-17
-5.04789e-18
6.88669e-18
-1.61071e-18
6.18991e-19
-1.95123e-18
3.31698e-19
-4.66638e-18
5.84407e-19
-6.9315e-17
1.15208e-17
-2.12536e-15
2.66368e-16
-1.57224e-14
3.72737e-15
-2.45291e-14
1.59884e-14
3.66698e-14
-1.63681e-13
-7.77286e-30
6.1687e-28
-2.29587e-28
7.40262e-29
-3.71915e-25
1.17086e-25
-2.44559e-23
1.17084e-23
-1.69646e-22
1.7935e-22
-1.69159e-21
1.15464e-21
-7.54311e-20
3.52021e-20
-2.29568e-18
1.00829e-18
-9.20718e-18
7.55175e-18
-6.95602e-18
8.85417e-18
-2.17112e-18
3.75949e-18
-2.24958e-18
2.96738e-18
-4.45138e-18
1.89186e-18
-2.70486e-18
5.8413e-19
-5.84992e-19
1.91046e-19
-2.36797e-19
1.00195e-19
-2.80717e-19
6.48025e-20
-6.66868e-19
9.22779e-20
-1.61498e-17
1.89916e-18
-4.64293e-16
4.52311e-17
-5.8352e-15
6.70615e-16
-2.34561e-14
5.26216e-15
1.70247e-14
-6.33661e-14
-1.64004e-30
1.72033e-29
-5.72848e-29
1.92914e-29
-3.63759e-26
1.65485e-26
-1.81272e-24
8.37443e-25
-1.46461e-23
1.26541e-23
-3.12807e-22
1.34829e-22
-2.23159e-20
7.67951e-21
-4.86468e-19
1.4058e-19
-1.30599e-18
6.51448e-19
-1.49562e-18
1.26562e-18
-1.63386e-18
2.19195e-18
-1.47978e-18
2.8359e-18
-5.48779e-19
1.40867e-18
-1.33486e-19
1.84386e-19
-6.75045e-20
2.47102e-20
-4.23696e-20
1.61818e-20
-4.99251e-20
1.47385e-20
-1.59714e-19
3.68591e-20
-4.60002e-18
8.45946e-19
-1.11114e-16
1.84808e-17
-1.28894e-15
2.49737e-16
-6.97006e-15
1.75573e-15
7.17134e-15
-1.94977e-14
-8.61249e-32
7.10423e-31
-1.38626e-29
4.40631e-30
-2.97507e-27
1.85955e-27
-9.12155e-26
4.87013e-26
-1.04145e-24
6.60834e-25
-5.56117e-23
1.45936e-23
-2.73195e-21
8.29926e-22
-3.08238e-20
9.97134e-21
-1.72565e-19
6.53952e-20
-6.37285e-19
3.62985e-19
-9.97064e-19
1.20018e-18
-7.19991e-19
1.73157e-18
-1.6643e-19
4.84262e-19
-1.95669e-20
6.84543e-20
-7.12081e-21
6.37029e-21
-6.28496e-21
2.42119e-21
-7.76067e-21
2.54871e-21
-5.37192e-20
1.62123e-20
-1.53748e-18
4.13167e-19
-3.84388e-17
8.37472e-18
-4.31857e-16
1.18233e-16
-1.97493e-15
8.23536e-16
3.06735e-15
-5.8409e-15
-4.54932e-33
4.2336e-32
-2.37874e-30
4.88449e-31
-2.25888e-28
1.48923e-28
-3.69697e-27
2.52118e-27
-6.21084e-26
2.48861e-26
-5.86773e-24
1.29125e-24
-1.78023e-22
6.32476e-23
-2.76157e-21
9.18365e-22
-3.27731e-20
1.10096e-20
-1.58178e-19
7.2043e-20
-2.40429e-19
1.70792e-19
-1.10954e-19
1.91046e-19
-2.63978e-20
3.43428e-20
-3.7959e-21
8.58579e-21
-9.85836e-22
1.56693e-21
-9.63481e-22
4.82199e-22
-1.30829e-21
4.86724e-22
-1.83165e-20
5.86649e-21
-4.72427e-19
1.69217e-19
-9.99769e-18
2.98106e-18
-1.30441e-16
3.83895e-17
-6.64061e-16
3.27103e-16
1.44667e-15
-1.65688e-15
-2.48285e-34
2.22288e-33
-2.37139e-31
2.49345e-32
-1.60465e-29
7.72101e-30
-1.4743e-28
1.10412e-28
-3.03575e-27
7.56487e-28
-3.97129e-25
1.0021e-25
-1.52445e-23
5.83433e-24
-4.19813e-22
1.25593e-22
-5.13484e-21
1.56102e-21
-1.58116e-20
5.74746e-21
-1.79851e-20
7.42077e-21
-7.87182e-21
5.71357e-21
-2.71927e-21
2.31676e-21
-6.82506e-22
1.00865e-21
-1.56334e-22
3.18154e-22
-1.44982e-22
8.74615e-23
-2.17822e-22
8.347e-23
-5.53347e-21
1.73089e-21
-1.50869e-19
6.2087e-20
-2.25957e-18
1.1199e-18
-2.66029e-17
1.1849e-17
-2.09306e-16
1.11976e-16
8.11834e-16
-7.40317e-16
-1.05359e-35
8.80343e-35
-1.13217e-32
5.29421e-34
-6.97321e-31
1.88906e-31
-5.08718e-30
2.90913e-30
-1.5716e-28
3.07735e-29
-3.25297e-26
9.27962e-27
-1.8291e-24
6.60001e-25
-5.40874e-23
1.4387e-23
-4.24337e-22
1.12338e-22
-7.60708e-22
2.74224e-22
-8.27043e-22
3.26392e-22
-6.14075e-22
3.07811e-22
-3.23953e-22
2.87945e-22
-1.06751e-22
1.61023e-22
-2.02939e-23
5.22127e-23
-1.81591e-23
1.26104e-23
-3.06178e-23
1.24328e-23
-1.28636e-21
4.29378e-22
-4.59594e-20
2.00382e-20
-6.30191e-19
4.70933e-19
-5.76544e-18
5.13001e-18
-5.91822e-17
4.50757e-17
4.50555e-16
-3.58938e-16
-3.50501e-37
3.1411e-36
-1.58455e-34
4.16596e-36
-7.51285e-33
1.77714e-33
-9.92448e-32
4.16294e-32
-1.05413e-29
2.00094e-30
-3.32498e-27
7.7529e-28
-2.10023e-25
6.19084e-26
-3.82455e-24
1.09972e-24
-2.10386e-23
5.99232e-24
-4.38701e-23
1.63583e-23
-5.17649e-23
2.68467e-23
-5.49436e-23
3.22187e-23
-3.836e-23
3.42519e-23
-1.37006e-23
2.05041e-23
-2.53248e-24
6.54795e-24
-2.32878e-24
1.92031e-24
-4.29791e-24
2.28624e-24
-2.39224e-22
9.98644e-23
-1.26549e-20
6.0979e-21
-2.15904e-19
2.10959e-19
-1.66702e-18
2.78396e-18
-1.53336e-17
2.1976e-17
2.17398e-16
-1.28499e-16
-1.07873e-38
1.09977e-37
-1.4552e-36
5.17998e-38
-7.30929e-35
2.41248e-35
-1.98523e-33
9.43309e-34
-5.55887e-31
1.14001e-31
-2.23836e-28
3.32885e-29
-1.48836e-26
3.05928e-27
-2.07599e-25
5.79589e-26
-1.13929e-24
3.46709e-25
-2.91167e-24
1.16166e-24
-4.0398e-24
2.2264e-24
-4.36389e-24
2.71557e-24
-3.24087e-24
2.55801e-24
-1.17959e-24
1.46563e-24
-2.77346e-25
5.00244e-25
-2.92176e-25
2.3792e-25
-6.16651e-25
4.61699e-25
-3.95464e-23
2.34267e-23
-3.18911e-21
1.82163e-21
-8.05603e-20
9.49584e-20
-5.84036e-19
1.64088e-18
-3.30565e-18
1.22425e-17
8.81533e-17
-1.95931e-17
-2.42815e-40
3.52119e-39
-1.40459e-38
7.92146e-40
-1.10014e-36
4.22147e-37
-5.55851e-35
2.78453e-35
-1.62332e-32
3.45992e-33
-7.02702e-30
6.87278e-31
-5.50807e-28
7.22003e-29
-8.88844e-27
1.80249e-27
-5.73113e-26
1.45835e-26
-1.62422e-25
5.58193e-26
-2.26535e-25
1.0582e-25
-2.37396e-25
1.23601e-25
-1.6534e-25
1.05149e-25
-5.93883e-26
5.67589e-26
-2.22093e-26
2.2102e-26
-2.31083e-26
1.68579e-26
-9.00152e-26
9.75383e-26
-6.03398e-24
5.50778e-24
-6.67805e-22
5.03009e-22
-2.55619e-20
3.76093e-20
-1.88899e-19
9.09321e-19
-3.44265e-19
7.23166e-18
3.54835e-17
4.03049e-18
-3.38783e-42
1.04082e-40
-1.41644e-40
1.22171e-41
-1.69372e-38
6.95061e-39
-1.26904e-36
5.58963e-37
-3.27075e-34
6.78455e-35
-1.19436e-31
1.16388e-32
-1.08305e-29
1.10726e-30
-2.34423e-28
3.21443e-29
-1.82608e-27
3.22815e-28
-5.21732e-27
1.31973e-27
-7.07994e-27
2.40623e-27
-7.2075e-27
2.77816e-27
-4.78299e-27
2.35981e-27
-1.77171e-27
1.31956e-27
-1.08694e-27
6.57775e-28
-1.19515e-27
8.68151e-28
-1.31503e-26
2.13834e-26
-8.22935e-25
1.25132e-24
-9.90639e-23
1.2043e-22
-4.5876e-21
1.15553e-20
-8.44601e-21
3.97588e-19
4.58476e-19
3.86286e-18
1.59976e-17
4.6674e-18
-2.56164e-44
3.02364e-42
-1.55992e-42
1.85364e-43
-2.34299e-40
1.14103e-40
-2.26152e-38
9.85375e-39
-6.03844e-36
1.3313e-36
-1.83071e-33
2.20696e-34
-1.62159e-31
1.85547e-32
-3.92732e-30
5.07884e-31
-3.28128e-29
4.99312e-30
-9.21004e-29
2.01469e-29
-1.26257e-28
3.70496e-29
-1.27288e-28
4.42104e-29
-8.53411e-29
3.98011e-29
-3.32203e-29
2.45804e-29
-3.25457e-29
1.61674e-29
-7.0301e-29
8.47524e-29
-1.77613e-27
4.68689e-27
-8.90191e-26
2.6615e-25
-7.48959e-24
2.47687e-23
9.41021e-23
2.71947e-21
2.44958e-20
1.24942e-19
4.83386e-19
1.57332e-18
7.02237e-18
3.086e-18
5.12437e-46
8.73592e-44
-1.71727e-44
2.77371e-45
-3.15452e-42
1.8962e-42
-3.74447e-40
1.84404e-40
-1.03411e-37
2.66771e-38
-2.83218e-35
4.28751e-36
-2.40537e-33
3.44742e-34
-5.74597e-32
9.10986e-33
-4.70615e-31
8.62623e-32
-1.31742e-30
3.44495e-31
-1.86999e-30
6.50841e-31
-1.86775e-30
8.02931e-31
-1.26177e-30
7.54726e-31
-6.56345e-31
5.06843e-31
-6.68811e-31
5.85624e-31
-6.64938e-30
1.76605e-29
-1.81802e-28
1.01009e-27
-4.09646e-27
5.32698e-26
4.91639e-25
4.57795e-24
1.68975e-22
5.41999e-22
1.38866e-20
3.01148e-20
2.63045e-19
4.78656e-19
2.60407e-18
1.59894e-18
1.45452e-46
2.4816e-45
-1.77169e-46
4.11588e-47
-4.05324e-44
3.13236e-44
-5.71126e-42
3.40995e-42
-1.60111e-39
5.15859e-40
-4.11406e-37
8.11996e-38
-3.41025e-35
6.42023e-36
-8.05744e-34
1.69709e-34
-6.51338e-33
1.61439e-33
-1.81782e-32
6.51926e-33
-2.62746e-32
1.25618e-32
-2.55105e-32
1.58407e-32
-1.47143e-32
1.53131e-32
-1.30017e-32
1.12642e-32
-2.36463e-32
5.95674e-32
-5.16815e-31
4.41321e-30
-2.6921e-31
2.14921e-28
1.6379e-27
1.0407e-26
3.03092e-25
7.86536e-25
5.84445e-23
9.61304e-23
4.71801e-21
6.27909e-21
9.87249e-20
1.1802e-19
7.94459e-19
6.77559e-19
8.86956e-48
6.88768e-47
-1.51892e-48
6.163e-49
-4.80385e-46
5.15103e-46
-7.81789e-44
6.16111e-44
-2.20592e-41
9.60945e-42
-5.42761e-39
1.49983e-39
-4.4081e-37
1.17658e-37
-1.02988e-35
3.13161e-36
-8.18567e-35
3.01611e-35
-2.22828e-34
1.23422e-34
-3.14884e-34
2.41155e-34
-2.81718e-34
3.08792e-34
-1.60636e-34
3.05972e-34
-1.1363e-34
3.17764e-34
-3.74745e-34
1.2083e-32
7.8537e-32
9.59958e-31
9.34268e-30
4.40031e-29
7.6792e-28
1.91103e-27
8.38587e-26
1.18839e-25
1.42211e-23
1.45055e-23
1.24614e-21
1.15259e-21
2.88974e-20
2.50989e-20
1.97026e-19
2.31728e-19
3.91967e-49
1.86262e-48
-5.71944e-51
9.94071e-51
-4.9671e-48
8.46343e-48
-9.29334e-46
1.09721e-45
-2.62015e-43
1.74179e-43
-6.25363e-41
2.71691e-41
-4.94336e-39
2.12884e-39
-1.11555e-37
5.70861e-38
-8.37663e-37
5.55764e-37
-2.07323e-36
2.30007e-36
-2.4809e-36
4.54617e-36
-1.42705e-36
5.90023e-36
7.44556e-39
6.12426e-36
2.87595e-36
2.15663e-35
4.60316e-34
2.48365e-33
5.15586e-32
1.67379e-31
3.56458e-30
7.80527e-30
2.12184e-28
3.09042e-28
1.6724e-26
1.51034e-26
2.53706e-24
1.6341e-24
2.64582e-22
1.70165e-22
7.04905e-21
4.62858e-21
3.89577e-20
6.21188e-20
1.44947e-50
4.89473e-50
2.19168e-53
1.92461e-52
-4.02172e-50
1.39395e-49
-8.95636e-48
1.93552e-47
-2.51418e-45
3.09718e-45
-5.85565e-43
4.8512e-43
-4.35193e-41
3.81372e-41
-8.72192e-40
1.0306e-39
-5.05764e-39
1.01262e-38
-5.78775e-39
4.23036e-38
9.38434e-39
8.44364e-38
3.76783e-38
1.11079e-37
7.86333e-38
1.41966e-37
1.08837e-36
3.28083e-36
1.55818e-34
3.7176e-34
1.35725e-32
2.28088e-32
8.52424e-31
1.11859e-30
4.34226e-29
4.23602e-29
2.58701e-27
1.67122e-27
3.19102e-25
1.3325e-25
4.24967e-23
1.83735e-23
1.44179e-21
7.10498e-22
6.33593e-21
1.31774e-20
4.86678e-52
1.2458e-51
9.66798e-55
4.43748e-54
-1.40147e-52
2.3107e-51
-5.83449e-50
3.39423e-49
-1.68298e-47
5.44826e-47
-3.83584e-45
8.58992e-45
-2.24035e-43
6.78476e-43
-1.58831e-42
1.84664e-41
2.5048e-41
1.828e-40
2.65388e-40
7.69041e-40
8.43253e-40
1.54671e-39
1.70681e-39
2.07447e-39
4.16328e-39
6.25027e-39
2.39749e-37
5.16077e-37
2.79779e-35
4.01558e-35
2.23522e-33
2.43755e-33
1.41706e-31
1.28252e-31
6.8745e-30
5.05077e-30
3.4025e-28
1.86157e-28
2.99095e-26
9.82795e-27
4.90656e-24
1.49117e-24
2.36956e-22
8.73064e-23
9.00005e-22
2.30394e-21
1.52406e-53
3.05892e-53
3.27042e-56
1.13412e-55
3.57576e-54
3.87851e-53
9.29747e-53
5.94149e-51
-5.22063e-50
9.56981e-49
-1.48416e-47
1.51842e-46
1.04222e-46
1.20313e-44
4.65275e-44
3.29234e-43
1.083e-42
3.27528e-42
7.2692e-42
1.38382e-41
2.01348e-41
2.79821e-41
4.17193e-41
4.01456e-41
3.43308e-40
6.41515e-40
3.43855e-38
5.68579e-38
3.19039e-36
3.45326e-36
2.54915e-34
2.23113e-34
1.72333e-32
1.27914e-32
8.79508e-31
5.68526e-31
4.26098e-29
2.33494e-29
2.64304e-27
9.33928e-28
4.36719e-25
1.15033e-25
3.04895e-23
9.05921e-24
1.15078e-22
3.43051e-22
4.43788e-55
7.21721e-55
1.03785e-57
2.9926e-57
1.38909e-55
6.59044e-55
8.44454e-54
1.04347e-52
-6.79465e-52
1.69174e-50
-3.8717e-49
2.69537e-48
-2.02273e-47
2.13439e-46
3.11595e-46
5.85155e-45
1.31956e-44
5.83597e-44
1.02471e-43
2.47087e-43
3.11437e-43
5.02029e-43
7.72405e-43
9.51505e-43
3.30113e-41
7.04945e-41
3.04734e-39
4.36677e-39
2.57585e-37
2.76182e-37
2.27326e-35
2.07692e-35
1.67447e-33
1.25796e-33
9.74227e-32
6.55403e-32
5.30425e-30
3.2028e-30
2.74174e-28
1.22386e-28
3.71209e-26
1.11245e-26
3.25834e-24
9.17919e-25
1.3416e-23
4.39007e-23
1.1874e-56
1.63147e-56
3.02498e-59
7.68634e-59
2.8893e-57
1.13451e-56
9.64784e-56
1.83646e-54
-5.80036e-53
3.02438e-52
-2.26877e-50
4.82341e-50
-1.99241e-48
3.79903e-48
-3.94865e-47
1.04001e-46
-1.60129e-46
1.03718e-45
3.09111e-46
4.39089e-45
2.59439e-45
9.01293e-45
1.33115e-44
3.29905e-44
1.82537e-42
4.24474e-42
1.61999e-40
2.54433e-40
1.67257e-38
2.30598e-38
1.78112e-36
2.04068e-36
1.40135e-34
1.24775e-34
9.64756e-33
7.51767e-33
6.11292e-31
4.16198e-31
3.13391e-29
1.71599e-29
3.46307e-27
1.3034e-27
3.14262e-25
9.56728e-26
1.43865e-24
4.75985e-24
2.89927e-58
3.52968e-58
7.94894e-61
1.87628e-60
5.14062e-59
1.98167e-58
-9.20032e-58
3.256e-56
-2.30693e-54
5.47506e-54
-7.78669e-52
8.70777e-52
-7.18794e-50
6.79188e-50
-1.76709e-48
1.8519e-48
-1.33358e-47
1.84309e-47
-2.32055e-47
7.78756e-47
-2.25902e-47
1.63462e-46
3.48876e-47
1.16942e-45
2.97902e-44
1.23214e-43
4.71417e-42
1.2045e-41
8.26002e-40
1.70176e-39
1.09995e-37
1.65854e-37
9.44567e-36
1.04995e-35
7.74184e-34
7.07077e-34
5.58327e-32
4.20674e-32
3.11289e-30
1.93727e-30
3.10157e-28
1.38064e-28
2.64727e-26
8.95104e-27
1.37374e-25
4.28914e-25
6.48992e-60
7.31435e-60
1.88219e-62
4.34084e-62
8.39662e-61
3.51106e-60
-5.83273e-59
5.82724e-58
-6.25832e-56
1.00149e-55
-1.9765e-53
1.58298e-53
-1.84399e-51
1.21956e-51
-4.80004e-50
3.30634e-50
-3.96227e-49
3.2789e-49
-7.9257e-49
1.38113e-48
-1.40284e-48
2.97029e-48
-1.21839e-47
2.82966e-47
-6.19162e-46
2.94578e-45
1.01964e-44
4.6157e-43
1.7619e-41
7.69818e-41
3.65285e-39
7.8242e-39
4.01508e-37
5.68521e-37
4.04145e-35
4.24696e-35
3.38143e-33
2.76403e-33
2.18216e-31
1.47661e-31
2.09851e-29
1.01596e-29
1.71739e-27
6.31041e-28
1.09056e-26
3.10751e-26
1.32188e-61
1.4562e-61
3.99354e-64
9.46103e-64
1.32254e-62
6.30017e-62
-1.54995e-60
1.0495e-59
-1.36308e-57
1.84291e-57
-4.13196e-55
2.8884e-55
-3.90027e-53
2.19759e-53
-1.02578e-51
5.91638e-52
-8.64294e-51
5.84225e-51
-1.80191e-50
2.45171e-50
-3.73114e-50
5.33502e-50
-5.07846e-49
6.07097e-49
-5.40617e-47
8.44287e-47
-6.81618e-45
1.33933e-44
-4.15765e-43
1.88505e-42
2.15098e-41
1.90725e-40
7.32343e-39
1.69653e-38
1.09005e-36