/*--------------------------------*- C++ -*----------------------------------*\
  =========                 |
  \\      /  F ield         | OpenFOAM: The Open Source CFD Toolbox
   \\    /   O peration     | Website:  https://openfoam.org
    \\  /    A nd           | Version:  13
     \\/     M anipulation  |
\*---------------------------------------------------------------------------*/
FoamFile
{
    format      ascii;
    class       volScalarField;
    location    "0.6";
    object      p;
}
// * * * * * * * * * * * * * * * * * * * * * * * * * * * * * * * * * * * * * //

dimensions      [1 -1 -2 0 0 0 0];

internalField   nonuniform List<scalar> 
2268
(
532.559
530.394
531.223
535.691
545.111
559.452
576.545
593.033
608.764
625.293
643.676
663.91
685.534
708.029
730.841
753.318
774.581
792.353
806.728
812.451
807.011
820.291
856.802
473.551
470.745
471.354
475.651
484.877
499.263
516.768
533.508
549.349
565.934
584.265
604.48
626.166
648.737
671.594
694.166
715.648
734.223
750.234
758.284
745.793
749.439
792.459
413.908
410.531
410.843
414.59
423.323
437.753
456.03
473.337
489.419
506.128
524.624
544.99
566.785
589.422
612.24
634.56
655.728
674.807
690.699
701.126
689.187
685.199
730.536
354.302
350.131
349.759
352.654
360.5
375.007
394.303
412.613
429.099
445.978
464.627
485.182
507.187
530.053
553.032
575.361
596.392
615.559
631.403
642.383
637.748
635.461
676.566
295.291
289.911
288.42
290.024
296.726
311.508
332.028
351.493
368.459
385.564
404.386
425.135
447.425
470.666
493.992
516.538
537.723
557.121
573.48
585.916
590.078
594.199
629.333
237.037
230.501
227.028
227.572
233.617
248.8
270.056
290.079
307.381
324.797
343.924
364.869
387.495
411.25
435.107
458.004
479.49
499.335
516.633
530.997
541.379
551.331
583.909
179.336
172.48
167.742
167.26
172.779
187.802
208.566
228.148
245.612
263.45
283.01
304.33
327.453
351.932
376.491
399.8
421.623
441.968
460.192
476.048
489.786
502.467
530.913
121.668
111.471
103.531
104.97
111.789
126.565
146.233
164.995
183.013
202.18
221.699
243.335
267.014
292.407
317.986
341.871
364.117
385.066
404.13
421.077
436.897
454.269
479.471
789.45
760.356
939.643
1272.35
1244.04
1191.62
1172.68
788.911
400.17
252.736
211.761
208.133
221.824
238.238
251.381
382.071
824.219
1300.65
1227.29
759.836
685.141
809.29
1139.97
1151.17
1156.01
1081.24
549.22
213.501
172.702
170.975
169.912
172.399
177.816
187.336
276.418
653.646
1186.67
1168.2
719.429
625.444
715.651
997.259
1004.03
1077.66
832.573
222.344
177.027
167.742
163.903
160.82
160.064
160.615
162.041
178.928
339.313
939.696
1092.64
661.581
555.59
632.753
847.157
808.283
813.938
415.885
191.724
173.374
167.288
163.454
160.597
159.824
160.18
160.81
166.262
225.471
589.689
998.976
597.285
490.399
553.986
699.923
591.945
446.217
219.812
180.043
172.229
166.95
162.6
159.858
159.311
159.745
160.333
163.209
187.599
325.436
892.329
542.616
438.77
482.897
565.632
388.961
162.898
133.206
173.888
170.808
165.672
161.162
158.793
158.514
159.195
159.998
161.996
171.777
211.915
774.237
502.67
411.242
426.08
449.44
218.63
12.0058
107.892
169.471
168.244
163.27
159.197
157.209
157.164
158.344
159.614
161.16
164.069
170.77
643.053
436.39
394.384
382.642
347.863
68.2199
-73.0882
147.873
163.425
164.571
159.992
156.648
155.11
155.517
157.164
158.953
160.435
161.818
160.812
508.447
51.7677
42.3957
34.1446
35.1391
43.5177
53.8292
64.98
75.3205
87.9061
104.553
124.732
147.028
172.402
200.121
227.485
251.948
274.531
296.311
316.647
334.71
351.486
366.483
376.765
6.55125
6.56111
6.45838
6.46775
9.32867
12.3567
13.9131
15.1069
18.1005
23.6967
31.7755
42.1416
58.9005
80.6478
106.337
131.343
154.627
176.977
198.563
218.098
236.462
256.528
283.537
6.3103
6.27385
6.20405
6.15121
6.20268
6.19018
6.15944
6.13957
6.12784
6.11416
6.12848
6.62387
9.84586
16.6708
27.5658
40.7257
55.2327
70.8232
86.8557
103.089
118.084
133.791
153.36
6.17782
6.14346
6.0139
5.94558
6.01881
6.00372
5.96398
5.94609
5.95612
5.98287
6.01362
6.04754
6.07458
6.10881
6.25934
7.18747
9.2793
12.6459
19.9494
27.6304
33.0976
39.0922
47.1119
6.00099
5.98679
5.92215
5.90152
5.92107
5.88642
5.85663
5.83859
5.82511
5.8219
5.84503
5.88012
5.9282
5.97386
6.04735
6.13754
6.22303
6.29046
6.36217
6.48124
6.63386
6.74466
7.09058
5.81083
5.80037
5.77477
5.74302
5.73386
5.73559
5.72514
5.72155
5.7275
5.74314
5.76548
5.79
5.81556
5.85986
5.9136
5.97488
6.04326
6.11128
6.19904
6.31316
6.44187
6.60055
6.8045
5.63714
5.62915
5.6166
5.60104
5.598
5.58958
5.58419
5.58293
5.58635
5.59531
5.61555
5.64365
5.67461
5.72474
5.78021
5.84115
5.90683
5.97586
6.05407
6.14776
6.25719
6.38547
6.55637
5.47006
5.46406
5.45897
5.44987
5.44661
5.44266
5.44165
5.44462
5.45326
5.46841
5.48971
5.51577
5.54458
5.58355
5.62912
5.68142
5.73892
5.80231
5.87468
5.95824
6.05132
6.15568
6.30444
5.3053
5.30231
5.30016
5.29499
5.29331
5.29252
5.29445
5.29917
5.30771
5.32096
5.33983
5.36361
5.39443
5.43285
5.47565
5.52336
5.57518
5.63153
5.69349
5.76188
5.8336
5.90245
5.97559
5.14346
5.14211
5.14158
5.1387
5.1393
5.14006
5.14373
5.14979
5.15912
5.17322
5.19158
5.21399
5.24152
5.27448
5.31271
5.35569
5.40218
5.45224
5.50619
5.56366
5.62192
5.67461
5.71292
4.98276
4.98233
4.98253
4.98184
4.98329
4.98558
4.99011
4.99704
5.00695
5.02039
5.03749
5.05845
5.08362
5.11315
5.14683
5.18413
5.22439
5.26785
5.31414
5.3621
5.40926
5.44937
5.47571
4.82252
4.82263
4.82327
4.82384
4.82586
4.82901
4.83399
4.8411
4.85077
4.86336
4.87907
4.89805
4.92039
4.94617
4.97519
5.00711
5.04212
5.07948
5.11872
5.15856
5.19545
5.22315
5.23756
4.66233
4.66269
4.66359
4.66482
4.66716
4.67063
4.67565
4.68251
4.69152
4.70294
4.71693
4.73354
4.75286
4.77489
4.79949
4.82647
4.85573
4.88695
4.91967
4.9525
4.98039
5.00088
5.00922
4.50191
4.50237
4.50336
4.50485
4.50725
4.51068
4.51542
4.52168
4.5297
4.53965
4.55163
4.5657
4.58186
4.60007
4.6202
4.64212
4.66565
4.69057
4.71668
4.74372
4.77055
4.78586
4.78831
4.3411
4.34157
4.34254
4.34403
4.34628
4.34941
4.3536
4.35902
4.36581
4.37409
4.38391
4.39529
4.40818
4.42249
4.43808
4.45476
4.4723
4.49043
4.50881
4.52702
4.54359
4.55368
4.55344
4.17986
4.18029
4.18113
4.18246
4.1844
4.18704
4.1905
4.1949
4.20032
4.20681
4.21438
4.223
4.23257
4.24296
4.25395
4.26528
4.27664
4.28759
4.29759
4.30578
4.31065
4.30902
4.2962
4.01819
4.01854
4.01922
4.02027
4.02178
4.0238
4.02642
4.02969
4.03365
4.0383
4.04359
4.04945
4.05574
4.06224
4.06869
4.07472
4.07991
4.08366
4.08517
4.08323
4.07606
4.06081
4.03245
3.85617
3.85642
3.85688
3.8576
3.85861
3.85995
3.86166
3.86374
3.86621
3.86901
3.87205
3.87522
3.87832
3.88108
3.88316
3.88412
3.88341
3.88028
3.87374
3.86236
3.84412
3.81617
3.77384
3.69389
3.69403
3.69426
3.6946
3.69508
3.6957
3.69647
3.69738
3.69836
3.69936
3.70025
3.70085
3.70093
3.70019
3.6982
3.69447
3.68834
3.67897
3.66525
3.64567
3.61812
3.57985
3.52676
3.53147
3.53149
3.53149
3.53144
3.53138
3.53129
3.53114
3.53088
3.53046
3.52975
3.52861
3.52683
3.52414
3.5202
3.51454
3.50662
3.49573
3.48098
3.46122
3.43494
3.40016
3.35434
3.29404
3.36903
3.36894
3.36871
3.36828
3.36769
3.36691
3.36588
3.36454
3.36279
3.36051
3.35751
3.35358
3.34841
3.34164
3.33278
3.32127
3.30637
3.28718
3.2626
3.23121
3.1912
3.14038
3.07596
3.20671
3.20652
3.20606
3.20528
3.20419
3.20276
3.20092
3.19858
3.19563
3.19194
3.18729
3.18146
3.17414
3.16495
3.1534
3.13891
3.12078
3.09814
3.06995
3.03493
2.99152
2.93788
2.87181
3.04462
3.04434
3.04368
3.04257
3.04103
3.03901
3.03644
3.03321
3.02921
3.02428
3.01822
3.01077
3.00164
2.99044
2.97671
2.95989
2.9393
2.91413
2.88345
2.84613
2.80088
2.74619
2.68041
2.88289
2.88253
2.88169
2.88028
2.87835
2.87582
2.87261
2.86862
2.86372
2.85775
2.8505
2.84173
2.83114
2.81836
2.80295
2.78439
2.76205
2.73521
2.70302
2.66455
2.61872
2.56439
2.50037
2.72161
2.72117
2.72018
2.71852
2.71626
2.71329
2.70955
2.70493
2.6993
2.69249
2.6843
2.6745
2.66279
2.64884
2.63222
2.61248
2.58904
2.56128
2.52844
2.48975
2.44435
2.39167
2.32999
2.56087
2.56036
2.55926
2.55739
2.55486
2.55155
2.54739
2.54227
2.53607
2.52862
2.51973
2.50917
2.49668
2.48193
2.46455
2.44412
2.42016
2.39215
2.35938
2.32124
2.27727
2.2264
2.16803
2.40076
2.40013
2.399
2.39695
2.39422
2.39065
2.38619
2.38071
2.3741
2.36621
2.35684
2.34579
2.33282
2.31763
2.29989
2.27921
2.2552
2.22758
2.19549
2.15848
2.11616
2.06792
2.01329
2.24133
2.24055
2.23947
2.23726
2.23442
2.23067
2.226
2.22029
2.21343
2.20527
2.19564
2.18436
2.17119
2.1559
2.13814
2.11759
2.09377
2.0674
2.03616
2.00071
1.96057
1.91532
1.86466
2.08261
2.08169
2.08074
2.07834
2.07547
2.07163
2.06685
2.06104
2.05407
2.04582
2.03613
2.02482
2.01171
1.99665
1.97918
1.95922
1.93631
1.91042
1.88083
1.84737
1.80977
1.76776
1.72115
1.92465
1.92361
1.92282
1.9202
1.91743
1.91353
1.90875
1.90295
1.89601
1.88783
1.87825
1.86711
1.85418
1.83984
1.82286
1.8036
1.78174
1.75707
1.72922
1.69798
1.66313
1.62449
1.58197
1.76746
1.76648
1.76555
1.7628
1.76033
1.75636
1.75168
1.74599
1.73922
1.73125
1.72197
1.71123
1.69888
1.68486
1.66878
1.65054
1.62995
1.60681
1.58091
1.55205
1.52007
1.48486
1.44638
1.61097
1.61003
1.60919
1.60616
1.60424
1.60001
1.59563
1.59014
1.58365
1.57602
1.56715
1.55693
1.54524
1.53195
1.51685
1.49981
1.48067
1.45927
1.43547
1.4091
1.38007
1.3483
1.3138
1.45516
1.45424
1.45327
1.45076
1.44914
1.4443
1.4406
1.43536
1.42921
1.42202
1.41369
1.40412
1.39321
1.38084
1.36687
1.35117
1.33362
1.3141
1.29249
1.2687
1.24265
1.21431
1.18369
1.30004
1.2992
1.29826
1.29615
1.29433
1.28976
1.28638
1.28152
1.27583
1.26916
1.26147
1.25267
1.24266
1.23134
1.21861
1.20436
1.18851
1.17096
1.15162
1.13044
1.10737
1.0824
1.05556
1.14554
1.14481
1.14386
1.14193
1.14024
1.13632
1.13299
1.12858
1.12339
1.11735
1.11039
1.10243
1.09342
1.08325
1.07186
1.05916
1.04507
1.02955
1.01252
0.993956
0.973829
0.952138
0.928941
0.991604
0.991003
0.990028
0.988192
0.986907
0.983567
0.980417
0.976459
0.971835
0.966465
0.960298
0.953269
0.945334
0.936395
0.926409
0.915317
0.903062
0.8896
0.87489
0.858912
0.841665
0.823157
0.803451
0.838183
0.837721
0.836807
0.835269
0.833997
0.831267
0.828492
0.825049
0.821044
0.816407
0.811095
0.805056
0.79824
0.790592
0.782079
0.77264
0.762247
0.750861
0.738458
0.725032
0.710594
0.695158
0.678785
0.685189
0.684867
0.684061
0.682803
0.68163
0.679417
0.6771
0.674227
0.670891
0.667036
0.662627
0.657622
0.651983
0.645672
0.63866
0.63091
0.622395
0.613089
0.602978
0.592065
0.580365
0.567894
0.554712
0.532514
0.53233
0.531658
0.53066
0.529694
0.527954
0.526139
0.523866
0.521238
0.518204
0.514736
0.510804
0.506382
0.501444
0.495964
0.48992
0.483291
0.476064
0.468228
0.459791
0.450766
0.441171
0.431056
0.380101
0.380039
0.37952
0.378791
0.378092
0.376827
0.375525
0.373882
0.371987
0.369797
0.367298
0.36447
0.361294
0.357752
0.353826
0.349501
0.344763
0.339606
0.334027
0.32803
0.321629
0.314833
0.307689
0.22793
0.227949
0.227602
0.227157
0.226743
0.225969
0.225188
0.224194
0.223049
0.221724
0.220213
0.218508
0.216596
0.214466
0.212106
0.209508
0.206664
0.203571
0.200233
0.196649
0.192836
0.188762
0.184519
0.0759133
0.0759749
0.0758398
0.0756963
0.0755447
0.0752829
0.0750307
0.0746921
0.0743099
0.073865
0.0733576
0.0727867
0.072149
0.0714387
0.0706504
0.0697827
0.068835
0.0678055
0.0666952
0.0655035
0.0642352
0.0628865
0.0614792
363.594
380.866
403.709
412.725
301.559
312.332
324.143
335.884
171.237
185.656
203.702
225.021
57.8878
67.0193
80.5498
100.645
10.9569
12.7082
11.9842
12.7459
6.91838
6.99405
7.10613
7.24391
6.74695
6.87602
6.95411
7.02767
6.44099
6.52607
6.60783
6.70256
6.03407
6.07307
6.12127
6.21144
5.74141
5.76371
5.79455
5.87472
5.50546
5.54277
5.59697
5.67122
5.25158
5.26945
5.31045
5.37762
5.00788
5.00776
5.01578
5.04727
4.7823
4.77573
4.7697
4.77218
4.54433
4.53456
4.51961
4.50041
4.2753
4.25752
4.23256
4.19713
3.99711
3.96884
3.93321
3.88715
3.72688
3.69058
3.64717
3.59502
3.47212
3.4311
3.38358
3.32873
3.23519
3.19205
3.14316
3.08803
3.01555
2.97212
2.92374
2.87004
2.81176
2.76925
2.72257
2.67142
2.62207
2.58128
2.53699
2.48901
2.44458
2.40597
2.36448
2.31996
2.27739
2.24131
2.20285
2.16191
2.11898
2.08557
2.05021
2.01284
1.96795
1.93725
1.90497
1.87106
1.82306
1.79505
1.76575
1.73514
1.68326
1.65785
1.6314
1.60391
1.54767
1.52476
1.50101
1.47641
1.41557
1.39505
1.37383
1.35194
1.28634
1.26811
1.2493
1.22994
1.15947
1.14341
1.1269
1.10994
1.03444
1.02048
1.00615
0.991466
0.910785
0.898817
0.886564
0.874034
0.788106
0.778018
0.767715
0.7572
0.666096
0.657772
0.649288
0.640646
0.544533
0.537871
0.531092
0.524201
0.423274
0.418188
0.41302
0.407777
0.302207
0.298628
0.294994
0.291312
0.181265
0.17914
0.176986
0.174804
0.0604016
0.0596985
0.058988
0.0582727
413.319
375.184
328.079
208.32
-79.3781
-124.755
152.365
155.006
157.785
154.667
152.914
152.218
153.073
155.111
157.383
159.163
160.457
159.116
344.51
349.586
336.215
287.82
127.172
-54.6183
38.2778
128.993
147.792
150.869
149.656
148.683
148.467
149.662
152.045
154.825
157.225
158.822
157.206
243.51
264.247
291.689
271.449
142.209
78.6535
108.364
138.119
146.714
146.849
145.909
144.548
144.539
146.389
149.399
152.779
155.777
157.49
156.726
200.526
163.516
210.96
236.843
182.704
165.166
152.609
150.403
147.747
144.526
142.702
141.444
142.021
144.507
148.036
151.861
155.235
156.908
157.603
200.61
24.4465
71.3674
199.092
204.472
199.276
174.668
159.886
149.895
143.844
140.702
139.818
141.311
144.244
148.063
152.136
155.543
157.299
159.827
220.037
7.30914
12.7503
191.495
209.791
214.467
181.437
163.478
152.712
145.499
141.61
140.843
142.409
145.373
149.135
153.288
156.707
159.471
167.442
257.885
7.06872
7.8111
29.6782
170.602
205.778
192.628
167.758
155.285
148.527
145.511
145.137
146.133
147.177
149.407
153.905
158.821
166.586
196.033
319.753
6.8392
7.09133
8.61704
34.2229
137.644
227.278
178.109
157.51
151.218
151.401
153.459
153.216
149.285
145.886
150.315
160.787
178.346
260.429
389.765
6.43254
6.61638
6.67744
9.72904
43.1222
199.519
177.014
156.522
153.559
160.114
164.677
164.008
154.977
139.184
132.533
149.222
171.315
261.397
395.499
6.09875
6.3506
6.48737
6.62169
9.44206
40.273
91.1892
120.854
132.941
172.844
182.358
183.188
153.336
114.649
81.2481
90.8048
119.968
177.109
295.176
5.81908
6.03097
6.27774
6.61091
6.67167
8.21198
33.172
60.0023
120.424
226.392
204.472
288.169
318.081
165.386
62.8608
29.7667
47.6952
80.2917
159.494
5.50106
5.68698
5.93698
6.22122
6.50627
6.52776
-1.41539
-1.45404
92.4896
249.701
370.449
364.232
311.84
194.384
90.5247
39.292
40.1523
64.132
112.338
5.12637
5.24106
5.32879
5.31101
5.48547
8.83505
18.0404
-15.3116
29.8443
111.645
166.915
224.981
208.979
163.916
113.203
70.9825
65.9633
90.9571
120.334
4.78474
4.73697
4.48197
3.97121
3.62539
3.00858
-0.183777
-8.00191
-2.19201
36.6992
90.0789
133.39
151.001
133.874
112.458
98.065
88.8025
109.147
127.623
4.46043
4.29812
3.87846
3.30056
3.09536
2.92841
2.41299
0.129793
-2.75314
3.82476
31.716
70.9938
107.528
110.602
96.8167
88.7907
97.8942
122.464
130.33
4.12349
3.92381
3.5115
2.96088
2.57641
2.22373
1.84682
1.45164
0.598605
0.520237
2.31023
19.1059
58.7138
80.8142
79.5169
70.2037
94.4099
130.305
129.275
3.79441
3.59023
3.24661
2.7825
2.36164
1.97081
1.45549
0.780675
0.0871085
-0.230432
-0.449861
1.10171
8.83797
33.4879
48.3796
45.5733
84.7659
146.136
118.154
3.49321
3.29197
3.0052
2.63127
2.23829
1.83712
1.3741
0.824644
0.238427
-0.218741
-0.490118
0.0171157
-0.0636666
3.94395
18.7438
17.0959
40.8387
116.761
99.7855
3.22409
3.02925
2.77634
2.46707
2.12053
1.7458
1.33458
0.887125
0.41252
-0.0262543
-0.291469
-0.000408165
0.223774
0.051622
1.73291
4.84325
12.6965
47.8125
90.5243
2.98467
2.80006
2.57201
2.30381
2.0026
1.67344
1.31348
0.926374
0.530296
0.157024
-0.11214
-0.0889443
0.0390754
0.152435
0.46216
1.75784
4.6076
23.5509
51.3027
2.77078
2.59919
2.39322
2.1567
1.89479
1.61082
1.3031
0.97274
0.631035
0.303014
0.0102561
-0.183447
-0.244685
-0.145258
0.178829
0.689838
1.47488
4.55373
22.8824
2.57811
2.42049
2.23556
2.02652
1.79766
1.55206
1.28911
1.00875
0.713116
0.413608
0.111779
-0.189974
-0.401812
-0.405346
-0.148918
0.169274
0.596034
1.81066
19.4341
2.40234
2.25907
2.09387
1.90935
1.70895
1.49534
1.26859
1.02831
0.774037
0.508435
0.233166
-0.0729674
-0.353379
-0.461285
-0.27019
-0.00507391
0.387549
2.20822
19.2654
2.24026
2.11101
1.96415
1.8017
1.6264
1.44038
1.2439
1.03671
0.819563
0.594024
0.366398
0.125279
-0.114556
-0.252407
-0.159333
0.0237846
0.383095
1.17316
3.77353
2.0892
1.97328
1.84332
1.70081
1.54779
1.38581
1.21526
1.03664
0.852718
0.6672
0.49136
0.329342
0.182203
0.0849893
0.119504
0.208781
0.541686
0.965883
2.93421
1.94693
1.84347
1.72893
1.60444
1.47125
1.33016
1.18166
1.02752
0.872494
0.722951
0.593071
0.49928
0.446266
0.422435
0.464588
0.483442
0.678862
0.827863
1.60304
1.81163
1.71963
1.61906
1.51078
1.3953
1.27241
1.14214
1.0075
0.875801
0.756244
0.664406
0.624588
0.649632
0.713753
0.778882
0.776921
0.980683
0.989542
2.27078
1.68179
1.60022
1.51217
1.41834
1.31867
1.21168
1.09583
0.975243
0.860668
0.764118
0.702285
0.702676
0.782545
0.902581
1.00394
1.02618
1.21555
1.19125
2.38015
1.55619
1.48404
1.40705
1.32589
1.24016
1.14678
1.0418
0.930909
0.829138
0.749069
0.709205
0.738371
0.853914
1.00877
1.13
1.18964
1.30675
1.28581
2.15599
1.43389
1.3702
1.30291
1.23268
1.15933
1.07798
0.981383
0.877543
0.786757
0.71852
0.694622
0.742603
0.874865
1.03571
1.15456
1.22593
1.27928
1.26405
1.71539
1.31421
1.25813
1.19936
1.13855
1.07574
1.00575
0.918846
0.823888
0.744258
0.686495
0.673805
0.730529
0.859081
0.997992
1.09228
1.16186
1.2372
1.23129
1.73271
1.19667
1.14752
1.0963
1.04355
0.989361
0.930681
0.857657
0.775576
0.709367
0.664484
0.65909
0.714194
0.819885
0.916398
0.96929
1.05887
1.1937
1.22575
1.89817
1.08086
1.0381
0.993718
0.94816
0.901829
0.854212
0.799398
0.730622
0.681104
0.650399
0.651653
0.695597
0.768625
0.815158
0.825461
0.88499
1.07267
1.19191
1.62737
0.966342
0.929555
0.891549
0.852786
0.813831
0.774902
0.73335
0.688909
0.654878
0.635902
0.64105
0.670077
0.709079
0.717026
0.71698
0.686992
0.988572
1.13575
1.91112
0.852634
0.821438
0.789385
0.756955
0.724578
0.693123
0.662724
0.635703
0.617574
0.609104
0.613427
0.62899
0.641792
0.638567
0.647826
0.578921
0.850211
1.04279
2.11288
0.739275
0.713269
0.686734
0.660151
0.633884
0.608896
0.58616
0.568542
0.560617
0.559783
0.561945
0.568892
0.574891
0.57586
0.591497
0.557457
0.688257
0.865085
1.84333
0.625946
0.60473
0.583257
0.561989
0.541241
0.52207
0.505384
0.492794
0.486875
0.487741
0.494979
0.504572
0.514155
0.517554
0.53626
0.533645
0.602142
0.643083
1.21494
0.5125
0.4957
0.478829
0.462311
0.44642
0.432173
0.420106
0.411092
0.407049
0.409992
0.419534
0.430901
0.440269
0.443443
0.463755
0.470694
0.516205
0.482613
1.01757
0.398884
0.386174
0.373489
0.36119
0.349486
0.339234
0.330563
0.324124
0.321484
0.324644
0.332742
0.342051
0.349563
0.351699
0.368856
0.365699
0.386727
0.305592
0.793738
0.285072
0.276183
0.267338
0.258783
0.250675
0.243514
0.237665
0.233171
0.231259
0.233241
0.238194
0.243071
0.246173
0.244571
0.253999
0.238165
0.248845
0.137113
0.560555
0.171104
0.16585
0.160625
0.155551
0.150715
0.146227
0.142758
0.139745
0.137892
0.137825
0.138501
0.137673
0.134227
0.126399
0.124619
0.0963583
0.124962
-0.0539413
0.479442
0.0570397
0.0553062
0.0535786
0.0518853
0.0502335
0.0485977
0.0472097
0.0453111
0.0431728
0.0407
0.0365595
0.0290393
0.0173659
0.000790102
-0.0143528
-0.0541367
-0.00818944
-0.181136
0.597189
)
;

boundaryField
{
    leftWall
    {
        type            calculated;
        value           nonuniform List<scalar> 
50
(
532.559
473.551
413.908
354.302
295.291
237.037
179.336
121.668
51.7677
6.55125
6.3103
6.17782
6.00099
5.81083
5.63714
5.47006
5.3053
5.14346
4.98276
4.82252
4.66233
4.50191
4.3411
4.17986
4.01819
3.85617
3.69389
3.53147
3.36903
3.20671
3.04462
2.88289
2.72161
2.56087
2.40076
2.24133
2.08261
1.92465
1.76746
1.61097
1.45516
1.30004
1.14554
0.991604
0.838183
0.685189
0.532514
0.380101
0.22793
0.0759133
)
;
    }
    rightWall
    {
        type            calculated;
        value           nonuniform List<scalar> 
50
(
1227.29
1168.2
1092.64
998.976
892.329
774.237
643.053
508.447
344.51
243.51
200.526
200.61
220.037
257.885
319.753
389.765
395.499
295.176
159.494
112.338
120.334
127.623
130.33
129.275
118.154
99.7855
90.5243
51.3027
22.8824
19.4341
19.2654
3.77353
2.93421
1.60304
2.27078
2.38015
2.15599
1.71539
1.73271
1.89817
1.62737
1.91112
2.11288
1.84333
1.21494
1.01757
0.793738
0.560555
0.479442
0.597189
)
;
    }
    lowerWall
    {
        type            calculated;
        value           nonuniform List<scalar> 
62
(
561.989
559.823
560.653
565.12
574.54
588.881
605.975
622.463
638.193
654.722
673.105
693.339
714.964
737.458
760.27
782.748
804.011
821.767
834.804
839.631
835.826
849.681
886.193
856.802
792.459
730.536
676.566
629.333
583.909
530.913
479.471
426.188
443.461
466.305
475.32
789.45
759.836
719.429
661.581
597.285
542.616
502.67
436.39
798.193
773.265
968.669
1301.75
1261.02
1203.21
1186.72
810.526
421.844
274.402
234.346
231.271
245.722
263.019
276.766
407.701
850.012
1326.49
1250.07
)
;
    }
    atmosphere
    {
        type            calculated;
        value           nonuniform List<scalar> 
46
(
0
0
0
0
0
0
0
0
0
0
0
0
0
0
0
0
0
0
0
0
0
0
0
0
0
0
0
0
0
0
0
0
-2.20714e-05
-0.000625816
-0.00234776
-0.00458121
-0.00813683
-0.0148188
-0.0262336
-0.0425924
-0.0647623
-0.0865545
-0.132317
-0.113244
-0.22278
-0.0182664
)
;
    }
    defaultFaces
    {
        type            empty;
    }
}


// ************************************************************************* //
