/*--------------------------------*- C++ -*----------------------------------*\
  =========                 |
  \\      /  F ield         | OpenFOAM: The Open Source CFD Toolbox
   \\    /   O peration     | Website:  https://openfoam.org
    \\  /    A nd           | Version:  13
     \\/     M anipulation  |
\*---------------------------------------------------------------------------*/
FoamFile
{
    format      ascii;
    class       volScalarField;
    location    "0.6";
    object      p_rgh;
}
// * * * * * * * * * * * * * * * * * * * * * * * * * * * * * * * * * * * * * //

dimensions      [1 -1 -2 0 0 0 0];

internalField   nonuniform List<scalar> 
2268
(
561.989
559.823
560.653
565.12
574.54
588.881
605.975
622.463
638.193
654.722
673.105
693.339
714.964
737.458
760.27
782.748
804.011
821.767
834.804
839.631
835.826
849.681
886.193
561.839
559.033
559.642
563.939
573.166
587.551
605.056
621.796
637.637
654.222
672.554
692.768
714.454
737.025
759.882
782.454
803.936
822.511
837.674
839.832
829.26
837.61
880.63
561.055
557.678
557.99
561.737
570.469
584.899
603.177
620.483
636.565
653.275
671.771
692.137
713.931
736.569
759.387
781.707
802.875
821.954
837.846
844.909
826.695
825.408
877.276
560.307
556.136
555.765
558.659
566.505
581.013
600.308
618.618
635.105
651.984
670.633
691.187
713.193
736.058
759.038
781.367
802.398
821.565
837.409
848.389
830.261
828.037
881.335
560.155
554.775
553.285
554.889
561.591
576.372
596.892
616.357
633.323
650.429
669.25
689.999
712.29
735.531
758.857
781.402
802.588
821.985
838.344
850.78
848.781
856.46
893.995
560.76
554.224
550.751
551.295
557.34
572.523
593.779
613.802
631.103
648.52
667.647
688.592
711.218
734.973
758.83
781.727
803.213
823.058
840.356
854.72
865.102
875.034
907.608
561.918
555.061
550.324
549.84
555.358
570.366
591.119
610.705
628.177
646.026
665.59
686.912
710.035
734.513
759.073
782.382
804.204
824.55
842.774
858.63
872.368
885.048
913.455
563.108
552.723
538.747
533.803
539.51
559.303
585.52
605.43
623.911
643.43
663.138
684.771
708.451
733.846
759.427
783.312
805.557
826.507
845.57
862.517
878.338
895.709
920.866
798.193
773.265
968.669
1301.75
1261.02
1203.21
1186.72
810.526
421.844
274.402
234.346
231.271
245.722
263.019
276.766
407.701
850.012
1326.49
1250.07
786.065
741.629
897.576
1228.26
1239.44
1195.42
1134.06
605.711
231.885
187.67
192.67
197.039
207.372
221.231
240.294
340.924
729.224
1266.36
1247.95
783.086
771.702
862.793
1144.4
1151.17
1179.63
920
257.853
177.224
167.936
164.098
161.019
160.277
160.884
162.532
189.555
391.817
1058.46
1225.81
841.363
761.59
838.753
1053.16
1014.28
1001.13
516.706
193.8
173.647
167.56
163.726
160.87
160.102
160.478
161.174
166.971
228.768
694.196
1185.41
862.065
755.175
818.84
964.78
856.802
680.885
273.195
180.483
172.607
167.317
163.179
160.336
159.699
160.112
160.671
163.696
189.025
408.295
1132.03
866.279
762.4
806.605
889.345
712.666
416.196
189.738
175.099
171.323
166.151
161.91
159.539
159.179
159.621
160.371
162.415
172.798
287.577
1067.21
885.192
793.78
808.644
832.006
601.131
312.255
279.875
172.408
168.848
164.008
160.08
158.094
158.045
159.06
160.041
161.577
164.888
246.503
989.287
877.748
835.806
824.063
789.281
459.75
308.735
503.238
165.366
165.292
161.009
157.668
156.126
156.199
157.701
159.442
160.902
162.318
237.836
907.936
433.516
348.369
278.093
268.723
290.348
345.544
429.849
501.377
557.926
609.585
653.52
680.495
705.869
733.588
760.952
785.415
807.998
829.778
850.114
868.177
884.953
899.95
910.193
7.20993
7.21979
7.12087
10.4653
44.2301
78.8137
95.382
108.761
143.857
208.459
299.985
405.333
520.282
655.956
764.824
790.004
813.289
835.639
857.225
876.759
895.123
915.189
942.184
7.09417
7.05864
6.98967
6.93506
6.98654
6.97404
6.9433
6.92343
6.9117
6.89802
6.91236
11.9052
60.2854
150.573
292.994
448.889
574.231
726.331
843.507
876.984
896.118
916.07
937.171
7.08689
7.05272
6.92306
6.85463
6.92786
6.91277
6.87303
6.85514
6.86517
6.89192
6.92267
6.9566
6.98365
7.01788
7.16849
23.1509
53.6445
104.828
219.568
334.748
415.52
505.253
615.452
7.03524
7.02105
6.9564
6.93577
6.95531
6.92067
6.89087
6.87283
6.85936
6.85616
6.87934
6.91438
6.96247
7.00812
7.08163
7.1719
7.25761
7.32521
7.39703
7.5163
7.6708
7.78627
15.7695
6.97027
6.95981
6.93421
6.90246
6.8933
6.89503
6.88458
6.88099
6.88697
6.90302
6.92549
6.94995
6.97508
7.01942
7.08489
7.15168
7.21985
7.27884
7.36904
7.4828
7.61121
7.76999
7.97472
6.92178
6.91379
6.90124
6.88568
6.88263
6.87422
6.86883
6.86756
6.87102
6.88053
6.90082
6.92891
6.95945
7.00945
7.0654
7.14254
7.20268
7.26682
7.35545
7.44913
7.55345
7.78449
8.07174
6.87988
6.87388
6.8688
6.8597
6.85644
6.85249
6.85148
6.85445
6.8631
6.87844
6.90002
6.92564
6.95443
6.99365
7.03982
7.09125
7.14875
7.21214
7.28451
7.36807
7.4754
7.80525
8.30653
6.84033
6.83733
6.83518
6.83002
6.82833
6.82755
6.82947
6.8342
6.84273
6.85598
6.87485
6.89864
6.92947
6.96889
7.01207
7.05852
7.1102
7.16656
7.22853
7.29828
7.39029
7.47975
7.97044
6.80368
6.80233
6.8018
6.79892
6.79952
6.80028
6.80395
6.81001
6.81934
6.83344
6.8518
6.8742
6.90175
6.935
6.97377
7.01593
7.0624
7.11246
7.16675
7.22569
7.28239
7.33519
7.56296
6.76817
6.76775
6.76795
6.76725
6.7687
6.77099
6.77552
6.78245
6.79236
6.8058
6.82291
6.84387
6.86904
6.89856
6.93225
6.96955
7.0098
7.05327
7.09955
7.14751
7.19468
7.23496
7.47597
6.73313
6.73324
6.73388
6.73445
6.73647
6.73961
6.74459
6.75171
6.76138
6.77396
6.78968
6.80866
6.831
6.85677
6.8858
6.91772
6.95272
6.99008
7.02933
7.06916
7.10626
7.13416
7.14825
6.69813
6.6985
6.69939
6.70062
6.70296
6.70643
6.71145
6.71831
6.72732
6.73875
6.75273
6.76935
6.78867
6.81069
6.83529
6.86227
6.89154
6.92275
6.95547
6.9883
7.01619
7.03668
7.04503
6.6629
6.66336
6.66436
6.66585
6.66825
6.67168
6.67641
6.68268
6.6907
6.70064
6.71263
6.72669
6.74285
6.76106
6.7812
6.80312
6.82665
6.85156
6.87767
6.90472
6.93154
6.94686
6.9493
6.62729
6.62776
6.62873
6.63022
6.63247
6.6356
6.63979
6.64521
6.652
6.66028
6.6701
6.68148
6.69437
6.70868
6.72427
6.74095
6.75849
6.77662
6.795
6.81321
6.82978
6.83987
6.83963
6.59124
6.59167
6.59252
6.59385
6.59578
6.59842
6.60188
6.60628
6.6117
6.61819
6.62577
6.63439
6.64396
6.65435
6.66533
6.67667
6.68802
6.69898
6.70897
6.71717
6.72204
6.7204
6.70759
6.55477
6.55512
6.5558
6.55685
6.55836
6.56038
6.563
6.56627
6.57023
6.57488
6.58017
6.58603
6.59231
6.59882
6.60526
6.6113
6.61649
6.62024
6.62175
6.61981
6.61264
6.59739
6.56903
6.51795
6.5182
6.51866
6.51937
6.52038
6.52172
6.52343
6.52552
6.52798
6.53078
6.53383
6.53699
6.54009
6.54285
6.54493
6.54589
6.54518
6.54205
6.53551
6.52414
6.50589
6.47794
6.43561
6.48086
6.481
6.48123
6.48157
6.48205
6.48267
6.48344
6.48434
6.48533
6.48633
6.48722
6.48782
6.4879
6.48716
6.48517
6.48143
6.4753
6.46594
6.45222
6.43264
6.40509
6.36682
6.31373
6.44363
6.44366
6.44365
6.44361
6.44354
6.44345
6.4433
6.44305
6.44262
6.44191
6.44077
6.43899
6.4363
6.43236
6.42671
6.41878
6.40789
6.39314
6.37338
6.3471
6.31232
6.2665
6.20621
6.40639
6.4063
6.40607
6.40564
6.40505
6.40427
6.40324
6.4019
6.40015
6.39787
6.39487
6.39093
6.38577
6.37899
6.37014
6.35863
6.34372
6.32454
6.29996
6.26856
6.22856
6.17774
6.11332
6.36926
6.36907
6.36862
6.36783
6.36675
6.36531
6.36347
6.36113
6.35819
6.35449
6.34984
6.34401
6.33669
6.3275
6.31595
6.30146
6.28333
6.2607
6.2325
6.19748
6.15407
6.10043
6.03436
6.33237
6.33209
6.33143
6.33031
6.32878
6.32676
6.32419
6.32096
6.31696
6.31203
6.30596
6.29852
6.28939
6.27819
6.26446
6.24764
6.22704
6.20188
6.17119
6.13388
6.08862
6.03394
5.96816
6.29583
6.29547
6.29463
6.29322
6.29129
6.28876
6.28555
6.28156
6.27666
6.27069
6.26344
6.25467
6.24408
6.2313
6.21589
6.19733
6.17499
6.14815
6.11596
6.07749
6.03166
5.97733
5.91331
6.25974
6.25931
6.25832
6.25666
6.25439
6.25143
6.24769
6.24307
6.23744
6.23063
6.22244
6.21264
6.20093
6.18697
6.17036
6.15061
6.12718
6.09941
6.06658
6.02789
5.98248
5.9298
5.86813
6.2242
6.22369
6.22259
6.22072
6.21819
6.21488
6.21072
6.2056
6.1994
6.19195
6.18306
6.1725
6.16001
6.14526
6.12788
6.10745
6.08349
6.05548
6.02271
5.98457
5.9406
5.88973
5.83136
6.18929
6.18865
6.18752
6.18548
6.18275
6.17918
6.17471
6.16924
6.16263
6.15473
6.14536
6.13432
6.12134
6.10616
6.08841
6.06774
6.04373
6.01611
5.98401
5.947
5.90468
5.85645
5.80182
6.15505
6.15427
6.15319
6.15098
6.14813
6.14439
6.13972
6.13401
6.12715
6.11899
6.10936
6.09808
6.08491
6.06962
6.05186
6.0313
6.00749
5.98112
5.94988
5.91443
5.87429
5.82904
5.77837
6.12153
6.12061
6.11965
6.11726
6.11439
6.11054
6.10577
6.09995
6.09299
6.08474
6.07504
6.06373
6.05062
6.03556
6.0181
5.99813
5.97522
5.94934
5.91974
5.88629
5.84868
5.80667
5.76007
6.08875
6.08772
6.08693
6.08431
6.08154
6.07764
6.07286
6.06705
6.06012
6.05194
6.04236
6.03122
6.01829
6.00395
5.98697
5.96771
5.94585
5.92117
5.89333
5.86209
5.82723
5.78859
5.74607
6.05676
6.05579
6.05486
6.0521
6.04963
6.04566
6.04099
6.0353
6.02852
6.02055
6.01127
6.00053
5.98818
5.97417
5.95808
5.93984
5.91925
5.89611
5.87021
5.84135
5.80937
5.77416
5.73568
6.02547
6.02453
6.02369
6.02065
6.01874
6.0145
6.01012
6.00464
5.99815
5.99051
5.98165
5.97143
5.95974
5.94645
5.93135
5.91431
5.89517
5.87377
5.84996
5.8236
5.79457
5.7628
5.7283
5.99485
5.99393
5.99296
5.99045
5.98884
5.98399
5.98029
5.97505
5.96891
5.96171
5.95338
5.94382
5.93291
5.92054
5.90656
5.89086
5.87331
5.85379
5.83218
5.80839
5.78235
5.754
5.72338
5.96493
5.96408
5.96315
5.96103
5.95922
5.95464
5.95127
5.94641
5.94072
5.93405
5.92636
5.91756
5.90755
5.89623
5.8835
5.86925
5.8534
5.83585
5.81651
5.79533
5.77226
5.74729
5.72044
5.93562
5.93489
5.93394
5.93201
5.93032
5.9264
5.92307
5.91866
5.91347
5.90743
5.90047
5.89251
5.8835
5.87333
5.86194
5.84924
5.83516
5.81963
5.8026
5.78404
5.76391
5.74222
5.71902
5.90688
5.90628
5.9053
5.90347
5.90218
5.89884
5.89569
5.89174
5.88711
5.88174
5.87557
5.86855
5.86061
5.85167
5.84168
5.83059
5.81834
5.80488
5.79017
5.77419
5.75694
5.73843
5.71873
5.87865
5.87819
5.87728
5.87574
5.87447
5.87174
5.86896
5.86552
5.86151
5.85688
5.85157
5.84553
5.83871
5.83106
5.82255
5.81311
5.80272
5.79133
5.77893
5.7655
5.75106
5.73563
5.71926
5.85085
5.85053
5.84973
5.84847
5.84729
5.84508
5.84277
5.83989
5.83656
5.8327
5.82829
5.82329
5.81765
5.81134
5.80432
5.79658
5.78806
5.77875
5.76864
5.75773
5.74603
5.73356
5.72038
5.82337
5.82319
5.82252
5.82152
5.82055
5.81881
5.817
5.81472
5.8121
5.80906
5.8056
5.80166
5.79724
5.7923
5.78682
5.78078
5.77415
5.76692
5.75909
5.75065
5.74162
5.73203
5.72192
5.79615
5.79609
5.79557
5.79484
5.79415
5.79288
5.79158
5.78994
5.78804
5.78585
5.78335
5.78052
5.77735
5.77381
5.76988
5.76555
5.76082
5.75566
5.75008
5.74408
5.73768
5.73089
5.72374
5.76918
5.7692
5.76885
5.76841
5.76799
5.76722
5.76644
5.76544
5.7643
5.76297
5.76146
5.75976
5.75784
5.75571
5.75335
5.75076
5.74791
5.74482
5.74148
5.7379
5.73408
5.73001
5.72577
5.74236
5.74242
5.74228
5.74214
5.74199
5.74173
5.74147
5.74113
5.74075
5.74031
5.7398
5.73923
5.73859
5.73788
5.73709
5.73623
5.73528
5.73425
5.73314
5.73195
5.73068
5.72933
5.72792
897.034
914.319
937.162
946.178
960.196
970.975
982.788
994.528
955.027
969.446
987.457
1008.79
704.842
742.247
741.321
728.211
96.4868
120.385
91.8031
68.6018
8.09143
8.19481
8.43829
8.5116
8.19166
8.20961
8.2877
8.38612
8.44308
8.52687
8.60868
8.50981
8.21395
8.25295
8.30109
8.39077
8.09908
8.12126
7.87501
7.61696
8.04033
8.07379
7.77146
7.55099
7.16433
7.37748
7.7279
7.79732
7.04379
7.04992
7.18079
7.33882
6.94336
6.93882
6.93372
6.93533
6.83054
6.82081
6.80587
6.78664
6.68669
6.6689
6.64395
6.60852
6.53369
6.50542
6.46979
6.42373
6.38865
6.35236
6.30894
6.2568
6.25909
6.21807
6.17055
6.1157
6.14735
6.10421
6.05533
6.00019
6.0529
6.00947
5.9611
5.9074
5.97431
5.9318
5.88512
5.83398
5.90982
5.86903
5.82474
5.77676
5.85752
5.81892
5.77742
5.73291
5.81553
5.77945
5.74099
5.70005
5.78232
5.7489
5.71354
5.67617
5.75648
5.72577
5.69349
5.65959
5.73678
5.70877
5.67947
5.64886
5.72218
5.69677
5.67032
5.64282
5.71178
5.68887
5.66512
5.64052
5.70487
5.68435
5.66313
5.64124
5.70084
5.6826
5.66379
5.64444
5.69916
5.68311
5.66659
5.64963
5.69932
5.68536
5.67104
5.65635
5.70087
5.6889
5.67665
5.66412
5.70338
5.69329
5.68299
5.67248
5.70657
5.69824
5.68976
5.68112
5.7102
5.70354
5.69676
5.68987
5.71413
5.70905
5.70388
5.69864
5.71826
5.71468
5.71105
5.70737
5.72251
5.72039
5.71823
5.71605
5.72684
5.72614
5.72543
5.72472
946.772
908.635
861.528
741.761
145.282
264.066
392.007
156.009
158.834
155.717
153.524
152.777
153.631
155.691
158.006
159.726
161.019
249.591
827.221
1008.22
994.854
946.451
635.848
24.4982
233.299
133.401
148.73
151.739
150.37
149.372
149.156
150.351
152.734
155.529
157.918
159.515
338.046
837.302
1047.86
1075.11
1055.15
388.366
139.503
113.217
139.541
147.679
147.689
146.73
145.368
145.359
147.209
150.219
153.601
156.6
158.315
431.868
905.113
823.897
1092.78
1077.6
295.597
181.286
155.956
151.7
148.963
146.008
144.135
142.419
142.971
145.458
148.989
152.815
156.191
157.87
522.109
1016.04
280.683
755.378
886.178
214.322
207.422
182.087
161.297
151.326
145.696
142.554
141.584
142.429
145.329
149.153
153.229
156.638
158.419
631.598
1147.31
14.7412
312.038
698.538
221.563
225.51
191.953
165.531
154.184
147.022
143.387
142.351
143.676
146.611
150.389
154.546
157.966
160.837
790.835
1299.64
8.47314
29.524
668.008
1061.38
615.935
194.663
169.391
156.821
150.009
146.963
146.588
147.574
148.659
150.975
155.448
160.343
168.665
1045.8
1475.52
8.36044
8.69989
116.317
875.774
1041.15
505.79
180.344
159.308
152.885
153.011
155.053
154.905
151.503
148.441
152.758
163.093
265.152
1395.44
1658.43
8.07072
8.23482
8.45448
148.979
895.775
1048.15
829.293
380.303
155.75
162.092
166.618
166.511
160.265
173.335
265.938
331.642
694.761
1618.4
1776.75
7.84099
8.09284
8.2378
8.54412
141.73
848.467
1024.97
1047.51
657.049
342.867
187.349
240.012
629.298
902.233
1199.68
1174.22
1113.54
1128.39
1636.16
7.72726
8.16737
8.63157
8.98744
9.20585
76.6891
514.985
873.527
1156.85
1183.43
826.851
1345.36
1674.77
1532.2
1431.27
1174.88
476.084
509.078
1239.84
7.91852
8.09356
8.3049
8.63924
9.48181
39.3406
299.909
862.643
1476.41
1630.92
1746.84
1737.93
1624.53
1657.43
1567.3
963.593
500.583
522.728
1511.62
7.44839
7.44399
7.57843
8.06959
11.7669
270.52
1284.1
1459.69
1504.45
1586.23
1470.89
659.559
457.754
912.91
1683.61
1950.17
1227.45
857.001
2031.44
6.9477
6.90662
6.77507
7.91217
10.2615
6.78191
3.31728
283.373
543.737
468.193
164.106
209.338
230.099
217.847
580.547
2121.9
2116.58
2056.64
2156.26
6.74679
6.58564
6.22294
6.25407
6.21339
5.27185
4.9985
3.96282
13.0049
15.451
99.1216
317.258
380.765
209.324
237.753
1560.5
2243.85
2268.41
2274.1
6.53489
6.33535
5.93096
5.4594
5.13696
4.67713
4.54479
4.95352
3.60839
3.94358
68.109
420.137
474.531
432.587
336.135
1312.07
2357.15
2393.81
2035.85
6.33099
6.12683
5.78389
5.32122
4.89952
4.50845
4.06
3.53056
2.74559
2.40127
2.28789
38.3137
409.978
582.114
620.835
1030.72
2148.86
2525.29
2128.69
6.15499
5.95375
5.667
5.29315
4.90018
4.49895
4.03712
3.48761
2.90249
2.48373
2.22008
2.79905
2.96508
287.254
419.191
273.241
594.477
1969.92
2205.61
6.01106
5.81623
5.56332
5.25406
4.90752
4.53279
4.12158
3.6742
3.19962
2.76347
2.53702
2.83242
3.11002
3.14337
35.8189
18.2134
63.9033
801.289
1864.12
5.89684
5.71223
5.48418
5.21598
4.91478
4.58562
4.22566
3.83858
3.44255
3.06929
2.88432
2.91658
3.04534
3.1673
3.51648
5.14164
71.4729
448.769
649.557
5.80814
5.63655
5.43058
5.19407
4.93218
4.64877
4.34177
4.01031
3.6685
3.34047
3.07269
3.07112
2.91124
3.01116
3.35007
3.9344
11.4258
293.518
607.308
5.74066
5.58304
5.39811
5.18908
4.96021
4.71646
4.45372
4.17179
3.87577
3.57627
3.27444
3.19681
3.0474
2.91003
3.17186
3.54346
4.53543
136.203
926.674
5.69008
5.54682
5.38162
5.1971
4.9967
4.78349
4.5574
4.31708
4.0619
3.79629
3.52102
3.42094
3.23238
3.12435
3.23078
3.44174
10.7572
47.3105
925.584
5.6532
5.52396
5.37709
5.21464
5.03934
4.8535
4.65711
4.45517
4.23785
4.00769
3.77951
3.53844
3.55542
3.47871
3.57178
3.58378
17.5212
22.009
87.0271
5.62733
5.51142
5.38145
5.23895
5.08593
4.92394
4.75859
4.58113
4.39722
4.20874
4.02973
3.86781
3.86366
3.95297
3.98599
3.84443
18.0771
14.4213
32.1115
5.61026
5.5068
5.39226
5.26777
5.13458
4.9935
4.84663
4.69743
4.54241
4.39287
4.25749
4.16315
4.1102
4.34722
4.37993
4.18014
17.9488
14.473
427.14
5.60015
5.50815
5.40759
5.29931
5.18382
5.06093
4.93067
4.79752
4.67113
4.55157
4.45591
4.41374
4.43873
4.56564
4.59511
4.59426
14.9915
15.297
477.037
5.59551
5.51394
5.42589
5.33206
5.23245
5.12569
5.00981
4.88923
4.77776
4.68486
4.62293
4.61869
4.69673
4.8693
4.94584
4.9689
15.8657
8.54626
492.958
5.59511
5.52296
5.44596
5.36481
5.27908
5.1858
5.08121
4.97042
4.86865
4.79424
4.75516
4.78219
4.89316
5.07756
5.19845
5.67055
12.9162
5.51261
507.134
5.598
5.53431
5.46702
5.39679
5.32345
5.24211
5.1457
5.0427
4.9521
4.88404
4.86348
4.90915
5.03927
5.2637
5.35466
6.17231
5.59829
5.60985
520.986
5.60352
5.54744
5.48867
5.42785
5.36505
5.29509
5.20826
5.11366
5.03376
4.97588
4.96333
5.02007
5.14869
5.39988
5.42659
5.51324
5.61412
5.669
533.101
5.61117
5.56202
5.51079
5.45805
5.40388
5.34523
5.27284
5.19052
5.12395
5.07907
5.07392
5.12894
5.26979
5.44619
5.41476
5.50437
6.93963
5.83291
328.308
5.62055
5.57779
5.53341
5.48785
5.44154
5.3939
5.3417
5.277
5.2214
5.19018
5.19171
5.23555
5.36047
5.39725
5.37068
12.6798
21.0747
6.4788
80.8642
5.63123
5.59444
5.55644
5.51767
5.47873
5.43979
5.40093
5.36174
5.3276
5.30151
5.3062
5.33523
5.62663
5.50881
5.38461
22.9133
23.4069
7.12135
238.423
5.64272
5.61152
5.57947
5.54704
5.51466
5.4832
5.45307
5.43081
5.41539
5.40051
5.4762
5.60023
5.69147
5.56779
5.43816
11.7466
23.9665
7.32137
455.692
5.65455
5.62854
5.60201
5.57543
5.54916
5.52417
5.5015
5.48396
5.47934
5.47506
5.52617
5.68369
5.64785
5.50058
5.50677
5.47273
21.1536
7.55354
475.842
5.66642
5.6452
5.62373
5.60246
5.58171
5.56254
5.54586
5.53327
5.52735
5.52821
5.53894
5.54887
5.55462
5.55802
5.57673
5.57412
7.28803
7.4735
517.982
5.67816
5.66137
5.64449
5.62798
5.61208
5.59784
5.58577
5.57676
5.57271
5.57567
5.5852
5.59657
5.60593
5.60911
5.62942
5.63636
5.68187
9.96268
569.38
5.68974
5.67703
5.66435
5.65205
5.64034
5.63009
5.62142
5.61498
5.61234
5.6155
5.6236
5.63291
5.64042
5.64256
5.65972
5.65656
5.67759
16.8638
583.086
5.70113
5.69224
5.68339
5.67484
5.66673
5.65957
5.65372
5.64922
5.64731
5.6493
5.65425
5.65912
5.66223
5.66063
5.67005
5.65422
5.6649
17.2154
596.631
5.71235
5.7071
5.70187
5.6968
5.69196
5.68748
5.68401
5.68099
5.67914
5.67907
5.67975
5.67892
5.67548
5.66765
5.66587
5.63761
5.66621
7.52073
610.328
5.72348
5.72175
5.72002
5.71833
5.71668
5.71504
5.71365
5.71175
5.70962
5.70714
5.703
5.69548
5.68381
5.66723
5.65209
5.61232
5.65825
5.48531
514.106
)
;

boundaryField
{
    leftWall
    {
        type            fixedFluxPressure;
        gradient        uniform 0;
        value           nonuniform List<scalar> 
50
(
561.989
561.839
561.055
560.307
560.155
560.76
561.918
563.108
433.516
7.20993
7.09417
7.08689
7.03524
6.97027
6.92178
6.87988
6.84033
6.80368
6.76817
6.73313
6.69813
6.6629
6.62729
6.59124
6.55477
6.51795
6.48086
6.44363
6.40639
6.36926
6.33237
6.29583
6.25974
6.2242
6.18929
6.15505
6.12153
6.08875
6.05676
6.02547
5.99485
5.96493
5.93562
5.90688
5.87865
5.85085
5.82337
5.79615
5.76918
5.74236
)
;
    }
    rightWall
    {
        type            fixedFluxPressure;
        gradient        uniform 0;
        value           nonuniform List<scalar> 
50
(
1250.07
1247.95
1225.81
1185.41
1132.03
1067.21
989.287
907.936
827.221
837.302
905.113
1016.04
1147.31
1299.64
1475.52
1658.43
1776.75
1636.16
1239.84
1511.62
2031.44
2156.26
2274.1
2035.85
2128.69
2205.61
1864.12
649.557
607.308
926.674
925.584
87.0271
32.1115
427.14
477.037
492.958
507.134
520.986
533.101
328.308
80.8642
238.423
455.692
475.842
517.982
569.38
583.086
596.631
610.328
514.106
)
;
    }
    lowerWall
    {
        type            fixedFluxPressure;
        gradient        uniform 0;
        value           nonuniform List<scalar> 
62
(
561.989
559.823
560.653
565.12
574.54
588.881
605.975
622.463
638.193
654.722
673.105
693.339
714.964
737.458
760.27
782.748
804.011
821.767
834.804
839.631
835.826
849.681
886.193
886.193
880.63
877.276
881.335
893.995
907.608
913.455
920.866
897.034
914.319
937.162
946.178
798.193
786.065
783.086
841.363
862.065
866.279
885.192
877.748
798.193
773.265
968.669
1301.75
1261.02
1203.21
1186.72
810.526
421.844
274.402
234.346
231.271
245.722
263.019
276.766
407.701
850.012
1326.49
1250.07
)
;
    }
    atmosphere
    {
        type            prghTotalPressure;
        rho             rho;
        psi             none;
        gamma           1;
        p0              uniform 0;
        value           nonuniform List<scalar> 
46
(
5.72904
5.72904
5.72904
5.72904
5.72904
5.72904
5.72904
5.72904
5.72904
5.72904
5.72904
5.72904
5.72904
5.72904
5.72904
5.72904
5.72904
5.72904
5.72904
5.72904
5.72904
5.72904
5.72904
5.72904
5.72904
5.72904
5.72904
5.72904
5.72904
5.72904
5.72904
5.72904
5.72902
5.72841
5.72669
5.72446
5.7209
5.71422
5.70281
5.68645
5.66428
5.64249
5.59672
5.6158
5.50626
5.71077
)
;
        rho             rho;
    }
    defaultFaces
    {
        type            empty;
    }
}


// ************************************************************************* //
