/*--------------------------------*- C++ -*----------------------------------*\
  =========                 |
  \\      /  F ield         | OpenFOAM: The Open Source CFD Toolbox
   \\    /   O peration     | Website:  https://openfoam.org
    \\  /    A nd           | Version:  13
     \\/     M anipulation  |
\*---------------------------------------------------------------------------*/
FoamFile
{
    format      ascii;
    class       volScalarField;
    location    "0.6";
    object      rho;
}
// * * * * * * * * * * * * * * * * * * * * * * * * * * * * * * * * * * * * * //

dimensions      [1 -3 0 0 0 0 0];

internalField   nonuniform List<scalar> 
2268
(
1000
1000
1000
1000
1000
1000
1000
1000
1000
1000
1000
1000
1000
1000
1000
1000
1000
999.485
954.02
923.58
979.135
998.674
998.674
1000
1000
1000
1000
1000
1000
1000
1000
1000
1000
1000
1000
1000
1000
1000
1000
1000
1000
990.396
923.652
945.395
998.673
998.674
1000
1000
1000
1000
1000
1000
1000
1000
1000
1000
1000
1000
1000
1000
1000
1000
1000
1000
1000
977.14
934.498
952.849
997.236
1000
1000
1000
1000
1000
1000
1000
1000
1000
1000
1000
1000
1000
1000
1000
1000
1000
1000
1000
999.999
934.501
934.811
994.002
1000
1000
1000
1000
1000
1000
1000
1000
1000
1000
1000
1000
1000
1000
1000
1000
1000
1000
1000
1000
976.738
990.169
999.236
1000
1000
1000
1000
1000
1000
999.999
999.998
999.999
999.999
1000
1000
1000
1000
1000
1000
1000
1000
1000
1000
1000
999.939
999.928
1000
1000
999.999
999.996
999.992
999.954
999.926
999.935
999.957
999.985
999.997
1000
1000
1000
1000
1000
1000
1000
1000
1000
1000
1000
999.897
999.998
999.571
985.901
971.44
968.922
980.285
995.122
997.722
998.771
999.568
999.997
999.989
999.992
999.998
1000
1000
1000
1000
1000
1000
1000
1000
999.897
297.077
438.627
986.294
998.969
577.019
393.744
477.164
734.479
736.473
736.191
767.433
786.213
812.059
842.061
862.585
870.907
876.462
878.16
773.954
297.077
639.809
999.974
999.974
999.803
446.443
598.272
639.853
208.222
169.536
245.729
307.252
396.127
491.741
599.834
730.625
856.033
902.707
903.355
432.611
993.961
999.974
999.974
999.974
692.983
594.147
241.316
1.33903
1.32108
1.32588
1.35061
1.44981
1.82659
3.33443
72.2194
356.817
807.084
905.002
872.706
999.972
999.973
999.974
999.973
908.694
489.41
10.0796
1.32737
1.32218
1.32087
1.32588
1.35062
1.45043
1.76432
3.4426
16.0039
507.303
905.002
999.68
999.668
999.962
999.973
999.97
885.995
201.547
1.66094
1.42775
1.38412
2.18473
1.80369
1.46348
1.38342
1.27874
1.83967
5.38506
312.834
905.002
999.815
999.715
999.953
999.97
999.947
782.452
174.632
3.73908
1.59121
1.48013
2.30943
2.30324
2.05385
1.31795
1.15165
1.29169
3.15333
233.724
905.001
999.843
999.884
999.953
999.959
999.79
784.797
449.534
7.67792
1.58021
1.93091
2.30809
2.31274
2.30324
1.87184
1.11428
1.09021
2.14185
197.955
904.995
999.815
999.956
999.955
999.95
886.937
864.949
805.013
4.39591
1.63516
2.30283
2.31016
2.30216
1.54457
1.21735
1.10665
1.05794
1.1344
174.484
904.967
715.599
573.556
457.288
437.859
462.69
546.827
683.959
798.655
881.066
946.697
991.229
999.999
1000
1000
1000
1000
999.999
999.999
1000
1000
1000
1000
999.928
1.00002
1.00003
1.00581
6.06915
52.9884
100.897
123.688
142.189
190.927
280.511
407.204
551.408
700.483
873.45
999.735
1000
1000
1000
1000
1000
1000
1000
999.977
1.00002
1.00119
1.00225
1
1
1
1
1
1
1
1.00003
6.73757
64.348
170.825
338.618
520.712
662.11
836.26
965.294
987.292
992.572
997.988
999.943
1.00002
1.00022
1.00013
1
1
1
1
1
1
1
1
1.00001
1.00002
1.00002
1.00012
17.5605
48.8039
101.404
219.59
337.844
420.683
512.799
625.201
1
1.00001
1
1
1
1
1
1
1
1.00001
1.00006
1.00002
1.00002
1.00002
1.00002
1.00012
1.00033
1.00049
1.00059
1.00079
1.00261
1.00712
8.39157
1
1
1
1
1
1
1
1
1.00002
1.00038
1.00049
1.00044
1.00008
1.00011
1.01023
1.01498
1.01479
1.007
1.0091
1.0088
1.00854
1.00863
1.0093
1
1
1
1
1
1
1
1
1.00003
1.00046
1.00049
1.00049
1.00016
1.00006
1.00043
1.01304
1.00873
1.00492
1.01303
1.01303
1.00905
1.08904
1.17961
1
1
1
1
1
1
1
1
1
1.00015
1.00034
1.00004
1.00001
1.00019
1.00062
1
1
1
1
1
1.01011
1.17005
1.42009
1
1
1
1
1
1
1
1
1
1
1
1
1.00001
1.00066
1.00091
1.00009
1
1
1.00001
1.0009
1.01411
1.02754
1.29956
1
1
1
1
1
1
1
1
1
1
1
1
1
1.00018
1.00051
1.00002
1
1
1.0002
1.0011
1.00015
1.00022
1.11434
1
1
1
1
1
1
1
1
1
1
1
1
1.00001
1
1
1
1
1
1
1
1.00001
1.0001
1.12033
1
1
1
1
1
1
1
1
1
1
1
1
1
1
1
1
1
1
1
1
1.0001
1.00021
1.00004
1
1
1
1
1
1
1
1
1
1
1
1
1
1
1
1
1
1
1
1
1
1
1
1
1
1
1
1
1
1
1
1
1
1
1
1
1
1
1
1
1
1
1
1
1
1
1
1
1
1
1
1
1
1
1
1
1
1
1
1
1
1
1
1
1
1
1
1
1
1
1
1
1
1
1
1
1
1
1
1
1
1
1
1
1
1
1
1
1
1
1
1
1
1
1
1
1
1
1
1
1
1
1
1
1
1
1
1
1
1
1
1
1
1
1
1
1
1
1
1
1
1
1
1
1
1
1
1
1
1
1
1
1
1
1
1
1
1
1
1
1
1
1
1
1
1
1
1
1
1
1
1
1
1
1
1
1
1
1
1
1
1
1
1
1
1
1
1
1
1
1
1
1
1
1
1
1
1
1
1
1
1
1
1
1
1
1
1
1
1
1
1
1
1
1
1
1
1
1
1
1
1
1
1
1
1
1
1
1
1
1
1
1
1
1
1
1
1
1
1
1
1
1
1
1
1
1
1
1
1
1
1
1
1
1
1
1
1
1
1
1
1
1
1
1
1
1
1
1
1
1
1
1
1
1
1
1
1
1
1
1
1
1
1
1
1
1
1
1
1
1
1
1
1
1
1
1
1
1
1
1
1
1
1
1
1
1
1
1
1
1
1
1
1
1
1
1
1
1
1
1
1
1
1
1
1
1
1
1
1
1
1
1
1
1
1
1
1
1
1
1
1
1
1
1
1
1
1
1
1
1
1
1
1
1
1
1
1
1
1
1
1
1
1
1
1
1
1
1
1
1
1
1
1
1
1
1
1
1
1
1
1
1
1
1
1
1
1
1
1
1
1
1
1
1
1
1
1
1
1
1
1
1
1
1
1
1
1
1
1
1
1
1
1
1
1
1
1
1
1
1
1
1
1
1
1
1
1
1
1
1
1
1
1
1
1
1
1
1
1
1
1
1
1
1
1
1
1
1
1
1
1
1
1
1
1
1
1
1
1
1
1
1
1
1
1
1
1
1
1
1
1
1
1
1
1
1
1
1
1
1
1
1
1
1
1
1
1
1
1
1
1
1
1
1
1
1
1
1
1
1
1
1
1
1
1
1
1
1
1
1
1
1
1
1
1
1
1
1
1
1
1
1
1
1
1
1
1
1
1
1
1
1
1
1
1
1
1
1
1
1
1
1
1
1
1
1
1
1
1
1
1
1
1
1
1
1
1
1
1
1
1
1
1
1
1
1
1
1
1
1
1
1
1
1
1
1
1
1
1
1
1
1
1
1
1
1
1
1
1
1
1
1
1
1
1
1
1
1
1
1
1
1
1
1
1
1
1
1
1
1
1
1
1
1
1
1
1
1
1
1
1
1
1
1
1
1
1
1
1
1
1
1
1
1
1
1
1
1
1
1
1
1
1
1
1
1
1
1
1
1
1
1
1
1
1
1
1
1
1
1
1
1
1
1
1
1
1
1
1
1
1
1
1
1
1
1
1
1
1
1
1
1
1
1
1
1
1
1
1
1
1
1
1
1
1
1
1
1
1
1
1
1
1
1
1
1
1
1
1
999.95
999.974
999.974
999.974
999.962
999.971
999.974
999.974
999.915
999.915
999.872
999.893
711.681
742.783
726.88
690.353
82.698
104.111
77.1761
54.0064
1.01174
1.03564
1.14896
1.09336
1.12461
1.03811
1.03811
1.05747
1.42009
1.41918
1.41922
1.28189
1.4201
1.42009
1.42005
1.41974
1.42009
1.42003
1.25313
1.04941
1.41977
1.41761
1.21792
1.05285
1.00112
1.10333
1.26528
1.26645
1.00005
1.00312
1.06347
1.12563
1.00003
1.00097
1.0014
1.001
1.00001
1.00003
1.00003
1.00002
1
1
1
1
1
1
1
1
1
1
1
1
1
1
1
1
1
1
1
1
1
1
1
1
1
1
1
1
1
1
1
1
1
1
1
1
1
1
1
1
1
1
1
1
1
1
1
1
1
1
1
1
1
1
1
1
1
1
1
1
1
1
1
1
1
1
1
1
1
1
1
1
1
1
1
1
1
1
1
1
1
1
1
1
1
1
1
1
1
1
1
1
1
1
1
1
1
1
1
1
1
1
1
1
1
1
1
1
999.973
999.971
999.966
999.951
421.132
728.857
449.216
1.87896
1.9669
1.96867
1.14475
1.04775
1.04641
1.08618
1.16794
1.05481
1.0534
169.597
904.857
999.964
999.966
999.954
772.287
120.117
296.087
6.69251
1.42514
1.32074
1.08397
1.04617
1.04588
1.04613
1.04641
1.06839
1.05135
1.05177
274.557
901.513
999.694
999.443
999.806
314.033
77.629
6.1903
1.81394
1.23161
1.07148
1.04739
1.04589
1.04588
1.04588
1.04626
1.04764
1.04979
1.05199
351.011
898.872
726.452
970.045
924.879
124.188
17.7333
3.68147
1.42715
1.33799
1.6301
1.57611
1.07187
1.04588
1.04626
1.04764
1.0498
1.052
1.05862
400.974
897.01
247.753
661.362
664.336
9.52366
7.8764
7.17307
1.36414
1.38337
1.79037
1.79037
1.70739
1.08148
1.04899
1.05359
1.057
1.05878
1.08368
456.15
896.568
6.41005
258.131
437.317
10.1535
9.52366
9.07034
1.77012
1.26965
1.31387
1.53326
1.30046
1.09323
1.0676
1.08149
1.08525
1.08587
1.17825
537.668
898.495
1.09324
16.902
496.896
693.411
319.279
1.58408
1.27155
1.19568
1.15412
1.13013
1.12899
1.1217
1.15394
1.22017
1.20133
1.18453
1.61867
661.485
899.688
1.07903
1.14096
76.3921
596.917
640.859
197.55
1.58507
1.27503
1.18198
1.14182
1.13011
1.19774
1.57317
1.81167
1.73301
1.63504
61.5722
805.067
899.872
1.0672
1.05434
1.15766
90.7154
555.466
552.842
424.931
145.784
1.42713
1.28849
1.26445
1.63092
3.44484
22.248
86.9075
118.838
341.002
884.027
899.823
1.04941
1.04941
1.05434
1.15794
79.681
486.8
562.442
558.155
315.686
102.41
3.00648
34.2271
286.686
474.386
673.666
652.576
598.457
572.985
807.718
1.06876
1.19659
1.31837
1.33108
1.41938
38.3537
269.861
455.651
580.497
536.035
348.591
592.125
759.873
765.548
766.438
641.372
239.939
240.161
605.096
1.26528
1.25959
1.23935
1.26557
1.55738
17.174
157.712
452.263
724.337
722.922
720.396
718.984
687.054
765.747
772.934
483.774
240.987
240.027
732.376
1.14059
1.08209
1.10504
1.35503
3.08546
128.541
621.898
724.531
724.337
724.326
640.521
213.468
122.2
367.911
771.394
923.072
570.532
376.286
938.75
1.00091
1.004
1.06113
1.82368
3.07085
1.74611
1.62011
134.834
252.629
199.673
34.2559
35.145
36.6024
38.8586
216.608
936.53
938.355
901.204
938.75
1.00007
1.00058
1.0255
1.29189
1.36385
1.02504
1.13092
1.6766
6.89269
5.08542
29.4838
107.718
119.516
43.1819
61.6469
643.739
938.659
938.656
937.704
1.00001
1.00006
1.00335
1.03613
1.06186
1.01742
1.11884
1.45223
1.24816
1.41966
27.2867
166.308
172.439
145.88
106.42
515
938.355
938.674
790.654
1
1.00001
1.00028
1.00084
1.00051
1.00042
1.02678
1.08409
1.04806
1.0375
1.07931
14.6702
158.142
216.286
225.68
388.375
813.733
937.939
792.618
1
1
1.00001
1.00004
1.00004
1.00002
1.00047
1.00045
1.00086
1.01529
1.01819
1.04514
1.13787
106.437
150.444
96.2309
207.996
696.212
791.137
1
1
1
1.00001
1.00001
1.00001
1.00001
1.00004
1.00005
1.00099
1.0149
1.01645
1.03562
1.10936
12.2305
4.79738
18.3736
270.357
636.389
1
1
1
1
1.00001
1.00001
1.00001
1.00001
1.00003
1.00004
1.02895
1.03206
1.03231
1.03527
1.04882
1.16196
22.9607
146.015
205.433
1
1
1
1
1.00001
1.0002
1.00043
1.00007
1.00004
1.00003
1.00826
1.07151
1.03904
1.0392
1.04408
1.06822
3.27617
95.1368
192.413
1
1
1
1
1
1.00058
1.00065
1.00015
1.00003
1.00003
1.00003
1.0709
1.09064
1.04832
1.05003
1.06692
1.24564
42.4949
286.87
1
1
1
1
1
1.00012
1.00032
1.00031
1.00003
1.00003
1.00003
1.06271
1.09064
1.09061
1.06485
1.04838
3.15403
13.7183
275.666
1
1
1
1
1
1.00005
1.00008
1.00162
1.00157
1.00021
1.00005
1.00007
1.07531
1.09323
1.09323
1.04309
5.0215
6.10495
24.3935
1
1
1
1
1
1
1.00147
1.0018
1.0018
1.00096
1.00007
1.00009
1.04051
1.09323
1.0928
1.02756
4.95613
3.80297
8.24652
1
1
1
1
1
1
1.00045
1.0018
1.0018
1.0018
1.0003
1.00015
1.00017
1.07137
1.06879
1.00911
4.71426
3.7248
116.161
1
1
1
1
1
1
1
1.00039
1.00179
1.0018
1.00079
1.00017
1.00015
1.01672
1.00731
1.00761
3.69822
3.77652
125.317
1
1
1
1
1.00001
1.00007
1.00007
1.00007
1.00086
1.00179
1.00177
1.00059
1.00012
1.01354
1.0072
1.00741
3.74327
1.87929
125.348
1
1
1
1
1
1.00003
1.00012
1.00015
1.00015
1.00155
1.00174
1.00122
1.00008
1.0074
1.00731
1.10943
2.87441
1.04652
125.028
1
1
1
1
1
1
1.00005
1.00025
1.0003
1.00034
1.00114
1.00059
1.00007
1.01534
1.00864
1.18786
1.0372
1.04363
124.702
1
1
1
1
1
1.00001
1.00003
1.00011
1.00005
1.00002
1.00005
1.00005
1.00007
1.02625
1.01049
1.01447
1.02043
1.0346
123.882
1
1
1
1
1
1.00001
1.00016
1.0001
1.00002
1.00002
1.00008
1.00006
1.00802
1.02612
1.00702
1.00702
1.3016
1.04364
73.9403
1
1
1
1
1
1
1.00057
1.00147
1.00013
1.00002
1.00008
1.00006
1.01149
1.00934
1.00122
2.59815
4.40603
1.16459
17.4542
1
1
1
1
1
1
1.00058
1.0017
1.00168
1.00015
1.00006
1.00006
1.05416
1.0272
1.00059
4.76459
4.80577
1.28312
50.7004
1
1
1
1
1
1
1.00006
1.00105
1.00162
1.00028
1.01518
1.03782
1.05419
1.02905
1.00005
2.33141
4.82587
1.31075
94.6912
1
1
1
1
1
1
1.00001
1.00003
1.0007
1
1.00996
1.04059
1.03208
1.00192
1
1
4.16362
1.36075
96.4337
1
1
1
1
1
1
1
1
1
1
1.00069
1.00076
1
1
1
1
1.32644
1.35512
102.523
1
1
1
1
1
1
1
1
1
1
1
1
1
1
1
1
1
1.83521
110.027
1
1
1
1
1
1
1
1
1
1
1
1
1
1
1
1
1
3.12959
110.056
1
1
1
1
1
1
1
1
1
1
1
1
1
1
1
1
1
3.15327
110.056
1
1
1
1
1
1
1
1
1
1
1
1
1
1
1
1
1
1.36696
110.056
1
1
1
1
1
1
1
1
1
1
1
1
1
1
1
1
1
1
90.6228
)
;

boundaryField
{
    leftWall
    {
        type            calculated;
        value           nonuniform List<scalar> 
50
(
1000
1000
1000
1000
1000
1000
1000
999.998
715.599
1.00002
1.00002
1.00002
1
1
1
1
1
1
1
1
1
1
1
1
1
1
1
1
1
1
1
1
1
1
1
1
1
1
1
1
1
1
1
1
1
1
1
1
1
1
)
;
    }
    rightWall
    {
        type            calculated;
        value           nonuniform List<scalar> 
50
(
773.954
903.355
905.002
905.002
905.002
905.001
904.995
904.967
904.857
901.513
898.872
897.01
896.568
898.495
899.688
899.872
899.823
807.718
605.096
732.376
938.75
938.75
937.704
790.654
792.618
791.137
636.389
205.433
192.413
286.87
275.666
24.3935
8.24652
116.161
125.317
125.348
125.028
124.702
123.882
73.9403
17.4542
50.7004
94.6912
96.4337
102.523
110.027
110.056
110.056
110.056
90.6228
)
;
    }
    lowerWall
    {
        type            calculated;
        value           nonuniform List<scalar> 
62
(
1000
1000
1000
1000
1000
1000
1000
1000
1000
1000
1000
1000
1000
1000
1000
1000
1000
999.485
954.02
923.58
979.135
998.674
998.674
998.674
998.674
997.236
994.002
999.236
999.928
999.897
999.897
999.95
999.974
999.974
999.974
297.077
297.077
432.611
872.706
999.68
999.815
999.843
999.815
297.077
438.627
986.294
998.969
577.019
393.744
477.164
734.479
736.473
736.191
767.433
786.213
812.059
842.061
862.585
870.907
876.462
878.16
773.954
)
;
    }
    atmosphere
    {
        type            calculated;
        value           nonuniform List<scalar> 
46
(
1
1
1
1
1
1
1
1
1
1
1
1
1
1
1
1
1
1
1
1
1
1
1
1
1
1
1
1
1
1
1
1
1
1
1
1
1
1
1
1
1
1
1
1
1
1
)
;
    }
    defaultFaces
    {
        type            empty;
    }
}


// ************************************************************************* //
