/*--------------------------------*- C++ -*----------------------------------*\
  =========                 |
  \\      /  F ield         | OpenFOAM: The Open Source CFD Toolbox
   \\    /   O peration     | Website:  https://openfoam.org
    \\  /    A nd           | Version:  13
     \\/     M anipulation  |
\*---------------------------------------------------------------------------*/
FoamFile
{
    format      ascii;
    class       surfaceScalarField;
    location    "0.1";
    object      alphaPhi.water;
}
// * * * * * * * * * * * * * * * * * * * * * * * * * * * * * * * * * * * * * //

dimensions      [0 3 -1 0 0 0 0];

internalField   nonuniform List<scalar> 
4432
(
4.72107e-06
-4.72107e-06
1.04761e-05
-5.75501e-06
1.60407e-05
-5.56465e-06
2.16174e-05
-5.57663e-06
2.7389e-05
-5.77165e-06
3.34394e-05
-6.05042e-06
3.98387e-05
-6.39924e-06
4.66509e-05
-6.81226e-06
5.39891e-05
-7.3382e-06
6.19191e-05
-7.92998e-06
7.0542e-05
-8.62286e-06
7.99829e-05
-9.4409e-06
9.05482e-05
-1.05654e-05
0.000102495
-1.19463e-05
0.000114867
-1.23726e-05
0.000125021
-1.0294e-05
0.00013144
-6.63239e-06
0.000136143
-4.88926e-06
0.000141
-5.11905e-06
7.32655e-05
-2.77396e-06
5.38178e-06
4.3763e-06
1.8954e-06
2.02499e-06
4.74763e-07
4.73723e-06
-9.4583e-06
1.04779e-05
-1.14957e-05
1.60431e-05
-1.11299e-05
2.16212e-05
-1.11547e-05
2.73898e-05
-1.15403e-05
3.34349e-05
-1.20955e-05
3.98242e-05
-1.27885e-05
4.66294e-05
-1.36175e-05
5.39463e-05
-1.46551e-05
6.18497e-05
-1.58334e-05
7.04845e-05
-1.72576e-05
7.99431e-05
-1.88995e-05
9.03368e-05
-2.09591e-05
0.000101935
-2.35445e-05
0.000114349
-2.47927e-05
0.000126225
-2.21768e-05
0.000135892
-1.67255e-05
0.000132528
-1.29163e-05
0.000101428
-9.99342e-06
4.46123e-05
-3.60507e-06
5.33763e-06
1.90738e-06
2.80495e-06
3.08021e-06
1.85907e-06
4.73325e-06
-1.41916e-05
1.04358e-05
-1.71982e-05
1.59709e-05
-1.66649e-05
2.15226e-05
-1.67065e-05
2.72615e-05
-1.72792e-05
3.32726e-05
-1.81065e-05
3.96219e-05
-1.91378e-05
4.63843e-05
-2.038e-05
5.36473e-05
-2.1918e-05
6.14916e-05
-2.36776e-05
7.00876e-05
-2.58537e-05
7.95152e-05
-2.83271e-05
8.98179e-05
-3.12618e-05
0.000101282
-3.50085e-05
0.000113892
-3.74032e-05
0.000127199
-3.54887e-05
0.000139389
-2.89329e-05
9.51451e-05
-2.31797e-05
1.77889e-05
-5.63855e-06
7.65125e-06
-4.53521e-07
7.6892e-06
0
3.59466e-06
2.97482e-06
3.97627e-06
4.72236e-06
-1.89139e-05
1.03742e-05
-2.285e-05
1.5864e-05
-2.21547e-05
2.13756e-05
-2.22182e-05
2.70712e-05
-2.29748e-05
3.30333e-05
-2.40686e-05
3.9326e-05
-2.54305e-05
4.60253e-05
-2.70793e-05
5.32147e-05
-2.91075e-05
6.09802e-05
-3.14431e-05
6.95017e-05
-3.43751e-05
7.88486e-05
-3.7674e-05
8.90771e-05
-4.14903e-05
0.000100574
-4.65052e-05
0.000113675
-5.05044e-05
0.000128203
-5.00173e-05
0.000117037
-4.53472e-05
3.46331e-05
-1.92457e-05
2.28586e-06
-1.59176e-06
1.34787e-06
7.40722e-09
2.65363e-06
0
3.17059e-06
9.92013e-07
4.36087e-06
4.70427e-06
-2.36182e-05
1.02922e-05
-2.84379e-05
1.57228e-05
-2.75854e-05
2.1181e-05
-2.76764e-05
2.682e-05
-2.86137e-05
3.27187e-05
-2.99672e-05
3.89389e-05
-3.16508e-05
4.55578e-05
-3.36981e-05
5.26534e-05
-3.62032e-05
6.03197e-05
-3.91094e-05
6.87454e-05
-4.28008e-05
7.79819e-05
-4.69104e-05
8.81138e-05
-5.16222e-05
9.96586e-05
-5.805e-05
0.00011351
-6.43582e-05
0.000125824
-6.23337e-05
6.06756e-05
-4.63461e-05
2.16527e-06
-6.25484e-06
3.14658e-07
-2.10502e-07
2.29547e-07
0
4.02109e-07
0
1.51494e-06
1.06805e-07
1.75975e-06
4.68061e-06
-2.82988e-05
1.01927e-05
-3.395e-05
1.55522e-05
-3.29449e-05
2.09463e-05
-3.30705e-05
2.65187e-05
-3.41861e-05
3.23439e-05
-3.57924e-05
3.84815e-05
-3.77884e-05
4.50094e-05
-4.0226e-05
5.20012e-05
-4.31949e-05
5.95553e-05
-4.66636e-05
6.78728e-05
-5.11183e-05
7.69972e-05
-5.60349e-05
8.70136e-05
-6.16386e-05
9.85231e-05
-6.95595e-05
0.000112942
-7.87771e-05
9.43919e-05
-8.02061e-05
9.29191e-06
-2.79975e-05
3.20889e-07
-1.32486e-06
1.02321e-08
9.66158e-10
4.37855e-08
0
9.54966e-08
0
2.25621e-07
0
1.94263e-07
4.65699e-06
-3.29558e-05
1.0079e-05
-3.93719e-05
1.53571e-05
-3.82231e-05
2.06798e-05
-3.83931e-05
2.6179e-05
-3.96854e-05
3.19236e-05
-4.15369e-05
3.79716e-05
-4.38364e-05
4.43994e-05
-4.66539e-05
5.12794e-05
-5.00749e-05
5.87119e-05
-5.40961e-05
6.68948e-05
-5.93012e-05
7.58552e-05
-6.49953e-05
8.56771e-05
-7.14605e-05
9.70696e-05
-8.09519e-05
0.000110571
-9.22791e-05
4.843e-05
-7.86165e-05
1.36007e-06
-9.00401e-06
0
-2.91247e-07
3.50602e-09
8.97831e-09
1.22466e-08
0
3.08598e-08
0
5.62483e-08
0
8.18547e-08
4.63395e-06
-3.75897e-05
9.94458e-06
-4.46826e-05
1.51317e-05
-4.34102e-05
2.03732e-05
-4.36346e-05
2.57878e-05
-4.51e-05
3.14379e-05
-4.7187e-05
3.73791e-05
-4.97777e-05
4.36856e-05
-5.29603e-05
5.04231e-05
-5.68124e-05
5.77015e-05
-6.13745e-05
6.56985e-05
-6.72982e-05
7.43784e-05
-7.36752e-05
8.38481e-05
-8.09302e-05
9.50293e-05
-9.21331e-05
9.9973e-05
-9.72285e-05
1.19971e-05
-5.84219e-05
3.59197e-07
-3.24153e-06
0
-1.90833e-08
0
1.16824e-08
2.48711e-09
7.61572e-10
6.32324e-09
0
1.05856e-08
3.71835e-09
5.3434e-08
1.68793e-24
-2.33158e-24
1.15793e-24
-4.90425e-24
3.00483e-25
-1.43662e-24
6.65304e-27
-6.27118e-26
9.51176e-29
-7.00727e-28
2.797e-30
-4.9498e-30
1.23324e-31
2.72968e-32
4.35563e-33
3.01802e-33
1.23718e-34
1.44681e-34
3.11193e-36
5.23569e-36
6.8067e-38
1.57035e-37
1.25554e-39
3.96759e-39
1.90139e-41
8.41475e-41
2.2761e-43
1.47588e-42
2.03101e-45
2.08071e-44
1.22919e-47
2.24761e-46
4.05699e-50
1.72993e-48
9.71157e-51
7.16202e-51
2.50108e-51
3.92106e-23
-2.39036e-22
2.71863e-22
-1.03162e-21
5.56224e-23
-2.85461e-22
8.77915e-25
-1.07592e-23
1.09121e-26
-1.1701e-25
3.03037e-28
-8.65943e-28
1.14436e-29
8.92319e-30
3.75107e-31
1.02332e-30
1.0447e-32
4.76531e-32
2.58318e-34
1.68225e-33
5.53354e-36
4.92983e-35
9.97967e-38
1.21648e-36
1.47815e-39
2.52007e-38
1.72464e-41
4.31698e-40
1.47289e-43
5.89248e-42
8.16346e-46
6.02997e-44
2.21183e-48
4.12817e-46
1.11874e-50
1.31262e-48
6.478e-51
1.57828e-21
-1.70143e-20
1.75067e-20
-8.82768e-20
2.7826e-21
-2.20891e-20
3.9591e-23
-7.49459e-22
5.40816e-25
-8.07238e-24
1.3883e-26
-5.57319e-26
4.34204e-28
6.68516e-28
1.26887e-29
5.96802e-29
3.29371e-31
2.48553e-30
7.63892e-33
8.06589e-32
1.55268e-34
2.20954e-33
2.67498e-36
5.16074e-35
3.76359e-38
1.01535e-36
4.10693e-40
1.64032e-38
3.18755e-42
2.08156e-40
1.55823e-44
1.91036e-42
3.78984e-47
1.18538e-44
9.46047e-50
3.26861e-47
4.44302e-49
1.01757e-20
-2.9884e-19
7.21258e-19
-5.5769e-18
1.04521e-19
-1.43523e-18
1.32698e-21
-4.18086e-20
1.84908e-23
-3.91669e-22
4.37582e-25
-2.24375e-24
1.17805e-26
3.19614e-26
3.08622e-28
2.20935e-27
7.43819e-30
8.18346e-29
1.62565e-31
2.44572e-30
3.1232e-33
6.26349e-32
5.08123e-35
1.37631e-33
6.69605e-37
2.54863e-35
6.83016e-39
3.84119e-37
5.18971e-41
4.64806e-39
2.51873e-43
4.24208e-41
6.29142e-46
2.47674e-43
2.6381e-48
9.05678e-46
1.67778e-47
-4.98769e-18
-2.40153e-18
2.50043e-17
-4.41609e-16
3.29992e-18
-1.10824e-16
3.25958e-20
-2.02189e-18
4.53291e-22
-1.38557e-20
1.01035e-23
-6.04455e-23
2.45134e-25
1.06685e-24
5.81941e-27
5.84952e-26
1.30315e-28
1.94099e-27
2.68168e-30
5.34898e-29
4.89174e-32
1.28314e-30
7.66445e-34
2.66927e-32
1.01452e-35
4.80217e-34
1.08267e-37
7.35145e-36
8.52953e-40
9.15255e-38
4.21746e-42
8.59317e-40
9.40112e-45
5.06342e-42
4.92497e-47
1.39909e-44
4.24325e-46
-1.12966e-16
-5.88672e-17
6.95164e-16
-1.1582e-14
5.63714e-17
-2.41019e-15
4.50294e-19
-2.97132e-17
6.99054e-21
-1.80517e-19
1.59227e-22
-5.93139e-22
3.70841e-24
2.27576e-23
8.23954e-26
1.05962e-24
1.7249e-27
3.24635e-26
3.31817e-29
8.33019e-28
5.7282e-31
1.86953e-29
8.70687e-33
3.717e-31
1.11348e-34
6.44077e-33
1.13816e-36
9.44025e-35
8.72073e-39
1.12703e-36
4.53945e-41
1.04114e-38
1.38242e-43
6.93927e-41
8.35947e-46
3.10894e-43
8.07195e-45
2.46789e-15
-6.51852e-16
7.16516e-15
-5.06399e-14
2.34117e-16
-4.46154e-15
2.50857e-18
-7.80361e-17
5.26089e-20
-6.85013e-19
1.37963e-21
-1.11603e-21
3.40396e-23
2.46738e-22
7.69222e-25
1.102e-23
1.59584e-26
3.38473e-25
3.02558e-28
8.63967e-27
5.16086e-30
1.92997e-28
7.63836e-32
3.77921e-30
9.44143e-34
6.37866e-32
9.328e-36
9.05389e-34
6.95315e-38
1.04055e-35
3.79969e-40
9.38752e-38
1.5825e-42
6.8487e-40
1.16628e-44
4.10362e-42
1.20807e-43
3.90007e-14
-1.30804e-13
6.9754e-15
-6.02382e-14
2.33344e-16
-2.58881e-15
6.71082e-18
-1.04748e-16
2.32375e-19
-1.50791e-18
7.21238e-21
6.57843e-21
1.92868e-22
1.51577e-21
4.62499e-24
6.94773e-23
9.98967e-26
2.26178e-24
1.95496e-27
6.08085e-26
3.39104e-29
1.41128e-27
5.00681e-31
2.82397e-29
6.00741e-33
4.77522e-31
5.49625e-35
6.57031e-33
3.66604e-37
6.96246e-35
1.75989e-39
5.81503e-37
4.94157e-42
3.4334e-39
1.03277e-43
1.24956e-41
1.42827e-42
9.66073e-06
-4.72505e-05
2.06075e-05
-5.56294e-05
3.12572e-05
-5.406e-05
4.20552e-05
-5.44325e-05
5.32076e-05
-5.62524e-05
6.48134e-05
-5.87928e-05
7.69847e-05
-6.1949e-05
8.98388e-05
-6.58144e-05
0.00010355
-7.05237e-05
0.000118276
-7.61004e-05
0.000134313
-8.33354e-05
0.000151627
-9.09891e-05
0.000171172
-0.000100475
0.000194774
-0.000115735
0.000123341
-0.000110165
3.40983e-06
-1.47318e-05
3.98829e-09
-5.03693e-07
0
1.30538e-08
0
1.84111e-09
1.90635e-11
1.31621e-10
1.40216e-09
0
4.25492e-09
7.74887e-10
1.95472e-08
4.06045e-08
9.38005e-06
-5.66305e-05
1.97033e-05
-6.59526e-05
2.97895e-05
-6.41462e-05
4.00447e-05
-6.46877e-05
5.06142e-05
-6.6822e-05
6.15693e-05
-6.97478e-05
7.2997e-05
-7.33767e-05
8.49986e-05
-7.7816e-05
9.76904e-05
-8.32155e-05
0.000111215
-8.96251e-05
0.000125769
-9.78889e-05
0.000141142
-0.000106363
0.000158651
-0.000117984
0.000171883
-0.000128967
2.41536e-05
-7.13988e-05
5.27835e-07
-3.02449e-06
0
-3.06174e-08
0
3.90822e-09
0
0
0
0
1.98039e-10
0
1.48172e-09
7.78438e-11
2.79684e-09
1.81816e-08
9.02454e-06
-6.56551e-05
1.86492e-05
-7.55773e-05
2.80974e-05
-7.35944e-05
3.77334e-05
-7.43237e-05
4.76351e-05
-7.67237e-05
5.78454e-05
-7.99582e-05
6.84284e-05
-8.39597e-05
7.94576e-05
-8.88452e-05
9.10003e-05
-9.47582e-05
0.000103155
-0.00010178
0.000116001
-0.000110734
0.000129224
-0.000119586
0.000144516
-0.000133276
0.000106845
-0.000139588
2.42435e-06
-2.95579e-05
1.69566e-08
-7.38525e-07
0
1.4618e-08
0
3.16778e-09
0
3.63414e-10
0
5.82648e-12
3.46433e-11
0
1.9215e-10
4.31105e-12
1.82457e-10
3.14661e-09
8.5922e-06
-7.42473e-05
1.74632e-05
-8.44482e-05
2.62229e-05
-8.23541e-05
3.51775e-05
-8.32783e-05
4.43433e-05
-8.58894e-05
5.37385e-05
-8.93534e-05
6.34049e-05
-9.36261e-05
7.33855e-05
-9.88258e-05
8.37049e-05
-0.000105077
9.44106e-05
-0.000112486
0.00010545
-0.000121773
0.000116516
-0.000130653
0.00012936
-0.00014612
4.86167e-05
-0.000122964
7.71573e-07
-7.78122e-06
0
-1.11607e-07
0
1.37241e-08
0
1.89919e-09
0
2.2827e-10
0
1.28054e-11
5.4688e-12
6.46476e-13
1.84321e-11
3.92686e-13
1.4014e-11
2.34937e-10
8.09175e-06
-8.2339e-05
1.61713e-05
-9.25278e-05
2.42091e-05
-9.03919e-05
3.24374e-05
-9.15066e-05
4.08201e-05
-9.42722e-05
4.93566e-05
-9.78899e-05
5.80685e-05
-0.000102338
6.69711e-05
-0.000107728
7.60544e-05
-0.000114161
8.53226e-05
-0.000121754
9.4617e-05
-0.000131067
0.000103731
-0.000139767
0.000112848
-0.000155237
1.23007e-05
-8.85435e-05
1.1526e-07
-2.19552e-06
0
4.97635e-09
8.8411e-11
6.38549e-09
0
7.54043e-10
0
6.2536e-11
0
5.15609e-12
4.94878e-13
4.19979e-13
1.65806e-12
2.80295e-14
3.7427e-13
1.5339e-11
7.5321e-06
-8.98711e-05
1.48002e-05
-9.97959e-05
2.20965e-05
-9.76882e-05
2.9569e-05
-9.8979e-05
3.7141e-05
-0.000101844
4.47983e-05
-0.000105547
5.25458e-05
-0.000110085
6.03768e-05
-0.000115559
6.82572e-05
-0.000122041
7.61623e-05
-0.000129659
8.38808e-05
-0.000138786
9.14017e-05
-0.000147288
8.55674e-05
-0.000155089
1.20812e-06
-5.60007e-05
0
-8.8168e-07
0
2.1532e-08
0
3.31592e-09
0
2.42034e-10
0
1.40007e-11
0
1.1681e-12
3.99829e-14
1.56359e-13
1.69369e-13
5.20285e-14
1.57474e-15
8.9465e-13
6.92365e-06
-9.67947e-05
1.3376e-05
-0.000106248
1.9923e-05
-0.000104235
2.66243e-05
-0.00010568
3.3375e-05
-0.000108595
4.01521e-05
-0.000112324
4.69476e-05
-0.000116881
5.37386e-05
-0.00012235
6.0477e-05
-0.00012878
6.71207e-05
-0.000136303
7.34387e-05
-0.000145104
7.95755e-05
-0.000153425
5.25373e-05
-0.000154663
6.86116e-07
-3.24083e-05
0
-3.57648e-07
0
1.88608e-08
0
1.35365e-09
0
7.28397e-11
0
3.90258e-12
0
3.10359e-13
1.84294e-14
6.90741e-14
2.50024e-14
3.42611e-14
7.37358e-15
5.55108e-14
6.27944e-06
-0.000103074
1.19231e-05
-0.000111892
1.77221e-05
-0.000110034
2.36489e-05
-0.000111607
2.95813e-05
-0.000114527
3.54915e-05
-0.000118235
4.13622e-05
-0.000122752
4.71599e-05
-0.000128148
5.28304e-05
-0.00013445
5.83225e-05
-0.000141795
6.34135e-05
-0.000150195
6.8371e-05
-0.000158383
3.34654e-05
-0.000145066
3.25986e-07
-1.66631e-05
0
-5.50112e-08
1.00549e-11
5.41149e-09
0
3.85238e-10
0
2.20388e-11
0
1.32783e-12
7.50244e-16
1.31904e-13
1.02097e-14
3.86238e-14
8.4312e-15
1.97902e-14
7.89879e-15
6.19917e-15
5.61207e-06
-0.000108686
1.04637e-05
-0.000116743
1.55233e-05
-0.000115094
2.06819e-05
-0.000116766
2.58095e-05
-0.000119655
3.08765e-05
-0.000123301
3.58586e-05
-0.000127734
4.07163e-05
-0.000133006
4.53945e-05
-0.000139128
4.98371e-05
-0.000146238
5.38507e-05
-0.000154208
5.77536e-05
-0.000162286
1.89175e-05
-0.000131234
0
-6.94631e-06
0
1.5811e-08
0
2.49447e-09
0
1.26886e-10
0
7.64356e-12
0
5.22357e-13
5.38017e-15
5.76025e-14
5.04744e-15
2.07448e-14
3.20842e-15
8.7117e-15
3.51177e-15
1.63972e-15
4.93338e-06
-0.00011362
9.01563e-06
-0.000120826
1.33498e-05
-0.000119428
1.7754e-05
-0.00012117
2.20982e-05
-0.000123999
2.63521e-05
-0.000127555
3.04869e-05
-0.000131869
3.44608e-05
-0.00013698
3.82201e-05
-0.000142888
4.17051e-05
-0.000149723
4.47707e-05
-0.000157274
4.76618e-05
-0.000165177
8.55091e-06
-0.000111108
0
-1.89386e-06
0
1.84693e-08
0
1.18238e-09
0
5.00415e-11
0
2.80754e-12
0
2.10677e-13
2.98675e-15
2.3594e-14
1.93194e-15
8.22776e-15
8.86725e-16
2.58774e-15
7.64864e-16
3.08868e-16
4.25081e-06
-0.00011787
7.59117e-06
-0.000124166
1.12183e-05
-0.000123055
1.48872e-05
-0.000124839
1.84734e-05
-0.000127585
2.19481e-05
-0.00013103
2.52803e-05
-0.000135201
2.84298e-05
-0.000140129
3.13479e-05
-0.000145806
3.39651e-05
-0.00015234
3.61862e-05
-0.000159495
3.79947e-05
-0.000166985
1.98069e-06
-8.18465e-05
0
-5.26026e-07
-3.87136e-10
8.37327e-09
0
3.23258e-10
0
1.58126e-11
0
9.16658e-13
0
7.9821e-14
1.06016e-15
9.44892e-15
5.06202e-16
2.41347e-15
1.59508e-16
5.36135e-16
1.12101e-16
3.37609e-17
3.5795e-06
-0.00012145
6.21671e-06
-0.000126803
9.16352e-06
-0.000126002
1.21255e-05
-0.000127801
1.49918e-05
-0.000130452
1.7733e-05
-0.000133771
2.03167e-05
-0.000137785
2.2702e-05
-0.000142515
2.48475e-05
-0.000147951
2.66302e-05
-0.000154123
2.79419e-05
-0.000160808
2.82628e-05
-0.000167304
3.30641e-07
-5.20887e-05
0
-1.64366e-07
2.5296e-11
1.32182e-09
0
8.95016e-11
0
3.44368e-12
0
2.29525e-13
8.62525e-16
2.69134e-14
3.221e-16
3.83617e-15
9.29978e-17
6.28906e-16
2.11727e-17
9.63553e-17
1.59096e-17
2.81408e-18
2.95617e-06
-0.000124406
4.9414e-06
-0.000128789
7.25944e-06
-0.00012832
9.57064e-06
-0.000130112
1.17817e-05
-0.000132663
1.38572e-05
-0.000135847
1.5757e-05
-0.000139685
1.74237e-05
-0.000144182
1.88109e-05
-0.000149339
1.96393e-05
-0.000154953
1.96011e-05
-0.000160773
1.72759e-05
-0.000164957
8.83265e-08
-3.74585e-05
0
-7.78355e-08
4.10642e-11
8.23249e-10
0
4.2161e-11
0
1.37398e-12
4.12554e-16
4.00751e-14
5.05103e-16
7.32101e-15
9.16785e-17
1.28277e-15
1.52116e-17
1.6445e-16
2.4844e-18
1.85406e-17
2.40351e-18
1.86683e-19
2.38241e-06
-0.00012679
3.76524e-06
-0.000130173
5.52213e-06
-0.000130078
7.24957e-06
-0.000131841
8.86102e-06
-0.000134277
1.03132e-05
-0.000137302
1.15454e-05
-0.000140921
1.24744e-05
-0.000145116
1.30331e-05
-0.000149904
1.29326e-05
-0.000154862
1.15745e-05
-0.000159398
8.89332e-06
-0.00016204
0
-3.88101e-05
0
-2.64887e-07
9.13036e-11
1.07482e-09
1.78759e-12
1.28543e-10
1.72143e-15
3.41554e-12
4.90269e-16
4.81326e-14
2.90151e-16
3.27546e-15
2.22828e-17
3.57399e-16
2.29171e-18
4.55806e-17
2.70117e-19
4.01757e-18
3.77901e-19
4.97176e-21
1.76238e-06
-0.000128535
2.54931e-06
-0.000130931
3.73596e-06
-0.000131226
4.85207e-06
-0.000132899
5.80672e-06
-0.000135144
6.55665e-06
-0.000137925
7.02339e-06
-0.000141213
7.12996e-06
-0.000144992
6.77992e-06
-0.000149252
6.59614e-06
-0.000151475
7.18501e-06
-0.000145496
9.89095e-06
-0.000111075
0
-4.3279e-05
1.44608e-08
-4.27965e-06
2.49705e-09
9.29699e-09
6.86617e-11
2.4021e-09
8.48766e-13
7.32533e-11
5.46534e-18
5.30975e-13
8.32134e-18
2.96264e-15
3.00684e-18
7.62458e-17
3.31451e-19
1.57836e-17
2.10075e-20
9.96192e-19
6.08181e-20
0
7.58299e-07
-7.41744e-05
8.02901e-07
-7.31914e-05
1.14676e-06
-7.16412e-05
1.34766e-06
-6.93287e-05
1.37269e-06
-6.61588e-05
1.21302e-06
-6.21772e-05
9.07915e-07
-5.74243e-05
6.0602e-07
-5.18836e-05
3.46375e-07
-4.58075e-05
1.42318e-06
-3.54485e-05
4.81906e-06
-2.31118e-07
4.67588e-06
-5.57082e-09
3.5476e-06
-7.73357e-06
1.34328e-09
-5.50588e-06
8.99412e-09
-1.2156e-08
2.53295e-10
9.46821e-09
3.5048e-13
2.85382e-10
9.96264e-15
4.09567e-12
2.87534e-19
1.31784e-14
-1.70373e-19
2.75656e-17
-2.44762e-20
5.80595e-18
-1.28047e-21
2.76201e-19
9.95163e-21
-3.24439e-23
-1.33651e-07
-1.20762e-25
-3.82426e-07
-1.95112e-25
-5.3661e-07
-8.00831e-24
-6.77276e-07
-7.83717e-22
-7.51753e-07
-5.39179e-20
-7.59775e-07
-2.67582e-18
-6.57599e-07
-9.95997e-17
-4.3451e-07
-3.03941e-15
-5.48727e-08
-9.25695e-14
2.3644e-07
-3.33377e-12
5.53856e-09
-6.06466e-11
1.70791e-10
-2.74056e-10
3.4598e-07
-4.61146e-09
1.37608e-06
-2.77976e-06
1.12113e-08
-1.29816e-07
1.6599e-10
2.14048e-08
0
4.59089e-10
-4.30314e-14
5.25617e-12
-2.53281e-17
7.22753e-15
-3.66122e-19
3.113e-18
-3.59799e-20
2.3453e-18
-1.22391e-21
7.15193e-20
1.50147e-21
-7.11187e-23
-1.84581e-27
-9.63901e-26
-3.14263e-26
-1.42374e-25
-3.98104e-24
-4.03321e-24
-3.52358e-22
-4.35501e-22
-2.0519e-20
-3.37747e-20
-8.30682e-19
-1.86762e-18
-2.2777e-17
-7.77672e-17
-4.237e-16
-2.64305e-15
1.20229e-16
-9.32597e-14
3.28033e-14
-3.37299e-12
1.32655e-12
-6.2137e-11
9.15793e-11
-3.68982e-10
9.26246e-10
-5.5876e-09
8.2258e-08
-2.64837e-07
-3.30928e-08
2.51053e-09
-3.29461e-10
8.42753e-09
-1.37459e-11
2.21157e-10
-6.70868e-15
5.11694e-13
-3.10176e-18
5.21546e-16
-4.77953e-19
2.01199e-19
-1.63065e-20
1.81572e-18
-3.32171e-22
1.27977e-20
1.71754e-22
-1.67574e-23
-2.41435e-27
-7.06952e-26
-3.86263e-26
-7.74512e-26
-4.62832e-25
-4.35538e-24
-6.85279e-23
-4.92e-22
-6.86338e-21
-4.18888e-20
-4.59581e-19
-2.76806e-18
-1.528e-17
-1.27675e-16
0
-4.31276e-15
0
-1.56873e-13
0
-5.08724e-12
0
-1.05381e-10
-9.8758e-11
-1.41327e-09
-1.1629e-10
-1.2676e-08
-1.93611e-07
-9.1816e-08
-7.75141e-09
3.85892e-09
-2.04615e-10
8.64431e-10
-9.12787e-13
2.03533e-11
-4.95191e-16
1.43154e-13
-3.69002e-19
6.59222e-17
-5.7231e-19
1.17071e-19
-3.85736e-21
1.23748e-18
-5.37831e-23
1.32121e-21
1.41034e-23
-2.30174e-24
-2.27811e-27
-4.4506e-26
-8.12148e-27
-5.65409e-26
-1.00526e-24
-3.49148e-24
-1.47634e-22
-3.9383e-22
-1.64946e-20
-2.98203e-20
-1.3085e-18
-1.94489e-18
-3.77639e-17
-8.62857e-17
0
-3.36066e-15
0
-1.30625e-13
0
-4.18772e-12
0
-9.48721e-11
0
-2.74989e-09
-3.25533e-08
-8.30513e-09
-1.76595e-07
-1.75197e-08
-8.50705e-10
8.66603e-09
-1.87118e-11
3.26822e-11
-1.34605e-13
1.81106e-12
-6.32148e-17
8.72214e-15
-6.65291e-20
2.82696e-18
-3.29801e-19
9.17212e-20
-5.06698e-22
2.906e-19
-6.01627e-24
8.53353e-23
9.28374e-25
-2.21218e-25
-1.13419e-27
-3.21864e-27
-5.16157e-27
-1.6072e-26
-8.04717e-25
-2.21282e-24
-1.16654e-22
-2.48445e-22
-1.71741e-20
-2.88217e-20
-7.89185e-19
-1.47843e-18
-4.53525e-17
-6.53005e-18
-3.22629e-15
-2.67118e-17
-1.27513e-13
-1.84695e-15
-4.27766e-12
-3.60319e-14
-9.92429e-11
-2.17206e-13
-4.5342e-09
-1.81323e-12
-1.17069e-09
-1.99384e-11
-7.75168e-09
-1.59217e-10
-1.39776e-10
1.92619e-10
-1.85768e-12
3.20379e-12
-8.55623e-15
9.14835e-14
-2.82221e-18
2.50341e-16
-2.05869e-20
3.45924e-20
-5.46286e-20
7.76255e-21
-4.35773e-23
1.31367e-20
-5.15618e-25
4.23811e-24
5.20676e-26
-1.63973e-26
-4.19245e-29
-2.19042e-29
-8.75389e-27
-3.1064e-29
-1.3438e-24
-2.55267e-27
-1.50002e-22
-2.62363e-25
-7.61169e-20
-2.07918e-23
-6.95171e-19
-1.81503e-21
-1.95366e-18
-7.15439e-20
-9.13011e-18
-3.63326e-19
-1.22239e-15
-1.38247e-18
-1.85508e-14
-3.52411e-17
-1.20606e-13
-6.64286e-16
-1.92168e-12
-9.5596e-15
-2.17406e-11
-1.16845e-13
-1.98383e-10
-1.65027e-12
-3.50077e-12
1.71261e-12
-9.12864e-14
4.31004e-14
-2.70798e-16
1.48912e-15
-3.54828e-20
2.32304e-18
-2.21668e-21
1.19707e-21
-2.88757e-21
2.80737e-22
-2.69232e-24
2.67981e-22
-3.51844e-26
1.64401e-25
2.39824e-27
-9.9369e-28
-4.87054e-31
-3.76118e-30
-2.98174e-30
-2.09241e-30
-2.56617e-27
-5.87005e-28
-3.7699e-25
-6.24035e-26
-1.61176e-23
-2.55548e-24
-2.74058e-21
-2.29826e-22
-7.45309e-20
-5.67426e-21
-3.39662e-20
-1.72652e-20
-1.25105e-18
-1.39951e-20
-3.57882e-17
-8.33263e-20
-6.85887e-16
-1.09139e-18
-1.02523e-14
-1.44507e-17
-1.26658e-13
-4.83279e-16
-1.75996e-12
-3.12238e-15
-4.4398e-14
5.73746e-20
-1.49668e-15
5.28127e-19
-2.30178e-18
6.37954e-18
-7.50142e-22
3.00397e-20
-1.74919e-22
2.05088e-22
-1.21456e-22
1.54434e-23
-1.21114e-25
6.67817e-24
-1.81754e-27
4.93937e-27
8.32451e-29
-5.06723e-29
-5.8434e-32
-4.14086e-33
-1.83509e-30
-4.4496e-32
-5.18559e-28
-9.61261e-30
-3.76391e-26
-9.56177e-28
-1.99254e-24
-5.62523e-26
-3.79933e-22
-3.61462e-24
-3.66313e-21
-2.09781e-23
-4.76635e-21
-2.20212e-22
-8.76012e-21
-4.85631e-21
-1.1344e-19
-1.02005e-19
-3.9222e-18
-2.10214e-18
-1.27472e-17
-4.35487e-17
-9.64526e-17
-4.38649e-16
-2.43787e-15
-8.23223e-16
-3.30104e-16
-2.08371e-16
-4.43844e-17
6.184e-18
-1.54874e-19
5.59967e-18
-8.38146e-22
3.80653e-20
-1.56474e-23
2.53022e-22
-4.99969e-24
1.28294e-24
-4.28307e-27
1.44045e-25
-7.02912e-29
1.60687e-28
2.47015e-30
-1.98263e-30
-1.35911e-34
-3.61753e-36
-5.62192e-33
-5.53505e-35
-9.49942e-30
-1.27132e-32
-9.64867e-28
-1.29185e-30
-1.07739e-25
-5.62742e-29
-1.95714e-24
-3.08273e-27
-6.35034e-24
-1.48052e-25
-2.05845e-22
-6.25444e-24
-5.53897e-21
-1.81123e-22
-1.72885e-19
-4.71311e-21
-6.16919e-18
-1.2663e-19
-2.8001e-16
-3.08725e-18
-2.75712e-15
-2.13794e-17
-3.72858e-15
-3.01722e-17
-5.94159e-17
-5.58383e-18
-3.37346e-17
1.57886e-18
-1.05146e-18
3.20066e-18
-5.04497e-21
1.52737e-19
-2.94817e-24
1.02551e-21
-1.42338e-25
1.81954e-25
-1.9787e-28
3.0475e-27
-2.69683e-30
8.64393e-30
8.10136e-32
-7.17627e-32
-1.23325e-37
-6.27978e-38
-7.26055e-36
-4.7574e-37
-1.24527e-32
-1.49482e-34
-1.29903e-30
-1.62603e-32
-2.12962e-29
-8.13963e-31
-2.87243e-27
-4.26247e-29
-1.431e-25
-1.53989e-27
-3.88583e-24
-5.04835e-26
-1.35362e-22
-1.80539e-24
-4.78339e-21
-5.52458e-23
-2.89373e-19
-1.61384e-21
-9.99709e-18
-4.02684e-20
-5.11878e-17
-2.56837e-19
-5.21893e-17
-3.66618e-19
-1.99587e-18
-1.74644e-19
-2.46519e-18
-7.80581e-22
-2.19579e-19
3.76803e-20
-1.94657e-21
6.19655e-21
-2.34029e-25
1.47607e-22
-3.03746e-27
5.29277e-27
-1.03272e-29
5.07042e-29
-9.60564e-32
3.9231e-31
2.45947e-33
-2.61226e-33
-1.09882e-39
-1.81139e-43
-4.23231e-37
-5.0195e-41
-1.49946e-34
-1.59915e-38
-1.63946e-32
-1.82626e-36
-3.41818e-31
-1.06679e-34
-4.58301e-29
-4.88776e-33
-7.02561e-28
-1.36481e-31
-4.15685e-26
-6.20058e-30
-1.52062e-24
-2.48621e-28
-5.69517e-23
-7.51043e-27
-3.99432e-21
-2.2691e-25
-1.22251e-19
-6.56044e-24
-5.45432e-19
-1.483e-22
-5.50597e-19
-1.07822e-21
-4.77159e-20
-1.65643e-21
-2.5871e-20
-5.19126e-22
-2.95889e-21
1.19248e-23
-1.24636e-22
5.69629e-24
-3.94522e-27
1.4272e-24
-5.1881e-29
4.19331e-28
-4.16738e-31
6.83158e-31
-3.2175e-33
8.8096e-33
1.15597e-34
-9.37519e-35
-1.48608e-44
-6.10106e-46
-5.54904e-41
-4.02343e-44
-1.59371e-38
-7.53484e-42
-1.8216e-36
-9.28023e-40
-2.17592e-34
-4.25745e-38
-1.4301e-33
-3.06668e-36
-1.19021e-31
-1.82657e-34
-7.80498e-30
-1.69172e-32
-3.18151e-28
-6.21922e-31
-7.73933e-27
-1.44325e-29
-2.91027e-25
-4.3784e-28
-1.67049e-23
-1.3054e-26
-5.94537e-22
-3.75361e-25
-3.70019e-21
-4.1098e-24
-4.11671e-21
-9.03136e-24
-4.84995e-23
-4.82538e-24
-1.19064e-23
1.21557e-27
-1.04383e-24
1.35292e-26
-1.93006e-27
2.35272e-27
-7.37029e-31
2.32965e-28
-7.73847e-33
7.38145e-33
-2.32855e-34
1.03054e-34
9.24428e-36
-3.38042e-36
-1.41544e-47
-9.5523e-49
-4.02463e-44
-1.43087e-47
-7.57211e-42
-2.88765e-45
-9.35117e-40
-3.85771e-43
-4.35152e-38
-2.62801e-41
-3.02391e-36
-1.08959e-39
-2.17896e-34
-6.82863e-38
-1.65905e-32
-3.69277e-36
-5.39822e-31
-1.7074e-34
-1.77329e-29
-5.2521e-33
-5.02223e-28
-1.35075e-31
-2.94591e-26
-4.69688e-30
-1.59541e-24
-1.56177e-28
-1.49187e-23
-2.66022e-27
-2.00916e-23
-1.00623e-26
-7.71418e-26
-9.25417e-27
-6.50979e-26
-1.11395e-27
-6.60944e-27
7.77153e-29
-2.93567e-28
2.15825e-29
-8.6258e-33
8.90786e-30
-1.73098e-34
7.98354e-34
-1.11682e-35
3.12319e-36
2.60464e-37
-1.28779e-37
-1.61364e-50
-2.01596e-55
-1.43309e-47
-1.68507e-52
-2.89938e-45
-3.70321e-50
-3.88243e-43
-5.37618e-48
-5.12285e-41
-2.92008e-46
-2.97262e-40
-2.49841e-44
-6.86781e-38
-3.49573e-42
-3.76268e-36
-2.10243e-40
-1.75239e-34
-1.08973e-38
-5.27227e-33
-3.74353e-37
-1.49715e-31
-1.06621e-35
-8.52522e-30
-3.95293e-34
-6.01717e-28
-1.26385e-32
-1.01613e-26
-4.12434e-31
-2.69286e-26
-8.19381e-30
-2.15549e-26
-3.1047e-29
-2.74213e-28
-1.9542e-29
-2.78504e-29
2.00117e-32
-3.40806e-30
1.96662e-32
-6.75292e-33
1.06204e-32
-6.73239e-36
9.03307e-34
-3.16564e-37
1.2231e-37
5.17923e-39
-7.23118e-39
-9.55911e-56
-8.34353e-58
-1.68525e-52
-5.64473e-56
-3.72145e-50
-1.36705e-53
-5.41682e-48
-2.19536e-51
-2.88428e-46
-1.5156e-49
-2.48277e-44
-1.2408e-47
-3.52834e-42
-1.25984e-45
-2.13728e-40
-8.42552e-44
-1.06101e-38
-4.9074e-42
-4.1393e-37
-2.48248e-40
-1.09734e-35
-6.0731e-39
-4.78159e-34
-2.65083e-37
-2.42409e-32
-1.01064e-35
-2.10722e-30
-3.93536e-34
-4.63423e-29
-1.05306e-32
-1.04943e-28
-5.36837e-32
-4.73777e-31
-4.7307e-32
-8.57888e-32
-3.95179e-35
-1.42453e-32
7.68765e-35
-6.85364e-34
1.86276e-35
-2.11066e-37
2.40192e-35
-9.06807e-39
3.06136e-39
1.42023e-40
-2.84703e-40
-1.92628e-59
-3.72609e-63
-5.64619e-56
-1.15404e-61
-1.37277e-53
-3.12091e-59
-2.20934e-51
-5.59276e-57
-3.58561e-49
-3.75928e-55
-3.69875e-48
-3.99528e-53
-1.26355e-45
-6.99634e-51
-8.55637e-44
-5.29129e-49
-4.99683e-42
-3.49032e-47
-2.53495e-40
-2.01142e-45
-5.87581e-39
-5.60379e-44
-3.00688e-37
-2.86353e-42
-1.70368e-35
-1.22338e-40
-1.88326e-33
-4.34542e-39
-5.82477e-32
-1.65547e-37
-1.62224e-31
-5.49745e-36
-1.91277e-33
-3.64752e-35
-8.12847e-34
-2.31952e-35
-6.34542e-35
5.45483e-36
-9.91682e-36
5.36402e-38
-5.98638e-39
3.82443e-38
-2.56396e-40
1.98394e-40
3.59358e-42
-8.67706e-42
-5.85278e-65
-2.19143e-68
-1.15521e-61
-2.70177e-65
-3.13417e-59
-8.26686e-63
-5.62776e-57
-1.6764e-60
-3.64079e-55
-1.28874e-58
-3.89154e-53
-1.51948e-56
-7.05125e-51
-2.93609e-54
-5.36704e-49
-2.52531e-52
-3.54926e-47
-1.90578e-50
-2.07714e-45
-1.28329e-48
-5.22635e-44
-4.06025e-47
-3.10613e-42
-2.3368e-45
-1.46272e-40
-1.20752e-43
-7.37137e-39
-5.40838e-42
-8.55389e-37
-2.49416e-40
-4.49433e-35
-1.10274e-38
-1.88401e-34
-9.98143e-38
-1.71113e-36
-1.06833e-37
-1.8211e-37
4.17003e-41
-3.9953e-38
1.5595e-40
-7.00176e-40
7.40056e-41
-6.33281e-42
2.27998e-41
7.21497e-44
-2.51348e-43
-1.96469e-68
-4.41873e-71
-2.70447e-65
-1.23203e-69
-8.29433e-63
-4.32162e-67
-1.68485e-60
-1.00485e-64
-1.53698e-58
-1.74121e-62
-1.79388e-56
-2.41423e-60
-2.95453e-54
-2.80133e-58
-2.55598e-52
-2.78317e-56
-1.93242e-50
-2.43022e-54
-1.30357e-48
-1.89933e-52
-4.93967e-47
-9.92369e-51
-2.26948e-45
-4.624e-49
-1.33403e-43
-2.71133e-47
-7.9926e-42
-1.5392e-45
-1.14339e-39
-8.75583e-44
-8.49867e-38
-5.13295e-42
-4.43215e-37
-6.4012e-41
-7.88014e-40
-9.27351e-41
-7.02433e-40
-7.48884e-43
-2.26183e-40
1.02342e-41
-2.0622e-41
3.77655e-43
-1.24949e-43
2.02599e-43
1.24771e-45
-6.4572e-45
-7.15494e-73
-1.10594e-78
-1.23321e-69
-1.8259e-75
-4.33582e-67
-7.47208e-73
-1.0097e-64
-2.02611e-70
-1.75279e-62
-4.1068e-68
-2.4341e-60
-6.65817e-66
-2.82794e-58
-9.02093e-64
-2.81416e-56
-1.05146e-61
-2.46122e-54
-1.07986e-59
-1.92673e-52
-9.95477e-58
-9.45727e-51
-7.9937e-56
-3.83355e-49
-3.39622e-54
-2.72046e-47
-2.39738e-52
-1.98468e-45
-1.57033e-50
-3.44753e-43
-9.71771e-49
-3.75486e-41
-5.7498e-47
-2.58491e-40
-4.00456e-45
-1.5904e-41
-6.94305e-44
-1.19899e-41
-7.86821e-44
-9.44186e-43
1.59846e-44
-2.31218e-43
1.5605e-45
-2.2594e-45
9.84965e-46
4.46692e-47
-1.50305e-46
-9.63399e-79
-1.08352e-81
-1.82743e-75
-1.41234e-79
-7.49151e-73
-6.87716e-77
-2.034e-70
-2.22088e-74
-4.12868e-68
-5.36844e-72
-6.70264e-66
-1.03885e-69
-9.09179e-64
-1.68075e-67
-1.06111e-61
-2.34474e-65
-1.09119e-59
-2.88743e-63
-1.00721e-57
-3.19799e-61
-8.11064e-56
-3.10546e-59
-2.51578e-54
-1.54294e-57
-2.08614e-52
-1.35068e-55
-1.6463e-50
-1.07896e-53
-1.25998e-48
-8.52291e-52
-2.11036e-46
-6.57495e-50
-4.15258e-44
-6.14101e-48
-4.91131e-43
-1.5701e-46
-5.30354e-44
-2.82705e-46
-6.68876e-45
6.909e-48
-9.86363e-46
1.86303e-47
-1.16024e-46
2.66428e-48
2.66836e-48
-3.13504e-48
-1.57437e-83
-1.20654e-87
-1.41252e-79
-2.91892e-84
-6.89153e-77
-1.74338e-81
-2.2279e-74
-6.90962e-79
-5.39121e-72
-2.05171e-76
-1.04438e-69
-4.88249e-74
-1.69151e-67
-9.72679e-72
-2.36225e-65
-1.6733e-69
-2.91202e-63
-2.54504e-67
-3.22847e-61
-3.48728e-65
-3.00889e-59
-4.36778e-63
-9.89714e-58
-2.57744e-61
-9.85597e-56
-2.88719e-59
-9.60207e-54
-2.86008e-57
-9.4206e-52
-2.65466e-55
-1.90967e-49
-2.61546e-53
-5.90526e-47
-3.29418e-51
-9.85876e-46
-1.41397e-49
-8.13037e-47
-3.99891e-49
-5.97397e-47
2.9235e-51
-5.65777e-48
2.10076e-49
-1.98332e-48
2.45608e-50
2.36165e-50
-5.49783e-50
-1.12117e-87
-4.52673e-94
-2.92081e-84
-1.37173e-90
-1.7466e-81
-1.05116e-87
-6.9286e-79
-5.34799e-85
-2.0592e-76
-2.04031e-82
-4.90476e-74
-6.24556e-80
-9.78001e-72
-1.6027e-77
-1.68398e-69
-3.55709e-75
-2.56358e-67
-6.99225e-73
-3.5158e-65
-1.24065e-70
-4.40993e-63
-2.01778e-68
-3.85262e-61
-2.65621e-66
-2.03776e-59
-2.15799e-64
-2.01169e-57
-2.91963e-62
-2.38328e-55
-3.80001e-60
-5.35358e-53
-4.42097e-58
-2.91965e-50
-5.14307e-56
-9.05012e-49
-7.46974e-54
-8.33822e-49
-4.14088e-52
-4.41908e-49
-4.49498e-52
-4.87195e-50
6.62602e-52
-1.78993e-50
2.786e-52
1.33316e-52
-1.28437e-51
-5.50307e-94
-3.43876e-99
-1.37234e-90
-7.53348e-96
-1.05259e-87
-8.02246e-93
-5.35895e-85
-5.66119e-90
-2.0459e-82
-2.99553e-87
-6.26695e-80
-1.27259e-84
-1.60928e-77
-4.5367e-82
-3.5741e-75
-1.4005e-79
-7.03035e-73
-3.83454e-77
-1.24822e-70
-9.49151e-75
-2.03189e-68
-2.15767e-72
-2.15578e-66
-4.5556e-70
-2.14535e-64
-4.59249e-68
-1.70179e-62
-8.56149e-66