/*--------------------------------*- C++ -*----------------------------------*\
  =========                 |
  \\      /  F ield         | OpenFOAM: The Open Source CFD Toolbox
   \\    /   O peration     | Website:  https://openfoam.org
    \\  /    A nd           | Version:  13
     \\/     M anipulation  |
\*---------------------------------------------------------------------------*/
FoamFile
{
    format      ascii;
    class       volScalarField;
    location    "0.1";
    object      alpha.water;
}
// * * * * * * * * * * * * * * * * * * * * * * * * * * * * * * * * * * * * * //

dimensions      [];

internalField   nonuniform List<scalar> 
2268
(
1
1
1
1
1
1
1
1
1
1
1
1
1
1
1
0.999919
0.99769
0.997748
0.997542
0.873508
0.191349
0.00890333
0.00873611
0.999999
1
1
1
1
1
1
1
1
1
1
1
1
1
0.999974
0.99998
0.999975
0.974839
0.843668
0.578461
0.147178
0.00942116
0.00873611
1
1
1
1
1
1
1
1
1
1
1
1
1
1
1
1
0.99999
0.871071
0.360904
0.0509825
0.0707326
0.0352305
0.00942116
1
1
1
1
1
1
1
1
1
1
1
1
1
1
1
1
0.968008
0.574707
0.0883698
0.00586331
0.0126963
0.0316993
0.0287478
1
1
1
1
1
1
1
1
1
1
1
1
1
1
1
0.999994
0.749755
0.176179
0.00736447
0.00243355
0.0014075
0.00961356
0.0213939
1
1
1
1
1
1
1
1
1
1
1
1
1
1
1
0.949701
0.379554
0.0155157
0.00276084
0.00112324
0.000589359
0.00109004
0.0072845
1
1
1
1
1
1
1
1
1
1
1
1
1
1
0.999999
0.755445
0.109107
0.00422145
0.00114882
0.000421778
0.00026151
0.000374102
0.00196403
1
1
1
1
1
1
1
1
1
1
1
1
1
1
0.999984
0.501994
0.0184465
0.00169637
0.000398698
9.12113e-05
7.98673e-05
8.51236e-05
0.000544904
1.46716e-18
3.47296e-19
8.64371e-20
5.74187e-21
1.10627e-22
2.47506e-24
1.11071e-25
4.53039e-27
1.52705e-28
4.60501e-30
1.24932e-31
2.97616e-33
6.09081e-35
1.0439e-36
1.44626e-38
1.53395e-40
1.15356e-42
4.26974e-45
2.37842e-45
3.37391e-17
3.29037e-17
1.29634e-17
8.14431e-19
1.21116e-20
2.54172e-22
9.92879e-24
3.6838e-25
1.18944e-26
3.49714e-28
9.27088e-30
2.15605e-31
4.30823e-33
7.21094e-35
9.63569e-37
9.57535e-39
6.15209e-41
1.42605e-43
2.37842e-45
2.05177e-15
2.06908e-15
6.96988e-16
3.76369e-17
5.61955e-19
1.19631e-20
3.93635e-22
1.29523e-23
3.89226e-25
1.07408e-26
2.69699e-28
5.99335e-30
1.14288e-31
1.80307e-33
2.22312e-35
1.92956e-37
1.10929e-39
1.84442e-42
6.4443e-44
6.05045e-14
8.19393e-14
2.61736e-14
1.27244e-15
1.80787e-17
3.70157e-19
1.06175e-20
3.15334e-22
8.84741e-24
2.31538e-25
5.52571e-27
1.16514e-28
2.09536e-30
3.06238e-32
3.6158e-34
3.17807e-36
1.65542e-38
5.52502e-41
1.87815e-42
9.60609e-13
3.58663e-12
1.00554e-12
3.62426e-14
4.24977e-16
8.03681e-18
2.10529e-19
5.76793e-21
1.52757e-22
3.81013e-24
8.69873e-26
1.75807e-27
3.12197e-29
4.75795e-31
5.86921e-33
5.34273e-35
2.76087e-37
4.69709e-40
3.90974e-41
2.42784e-11
1.17698e-10
2.36732e-11
5.72364e-13
6.01189e-15
1.18653e-16
3.04868e-18
7.93243e-20
1.99026e-21
4.69218e-23
1.01352e-24
1.9936e-26
3.45266e-28
5.05898e-30
6.00969e-32
5.46285e-34
3.48258e-36
1.48767e-38
6.27964e-40
7.95779e-10
8.31046e-10
1.17027e-10
2.66769e-12
4.0486e-14
1.02086e-15
2.82856e-17
7.46825e-19
1.84626e-20
4.26056e-22
9.12464e-24
1.75935e-25
2.95381e-27
4.18846e-29
4.80904e-31
4.33111e-33
3.36844e-35
2.46823e-37
8.18902e-39
4.94988e-09
1.66861e-09
1.39085e-10
4.47366e-12
1.48809e-13
5.11863e-15
1.5806e-16
4.44701e-18
1.14457e-19
2.7316e-21
5.98122e-23
1.15956e-24
1.91556e-26
2.56304e-28
2.59745e-30
2.14317e-32
1.25659e-34
4.90499e-37
8.96292e-38
1
1
1
1
1
1
1
1
1
1
1
1
1
1
0.896116
0.197773
0.00331658
0.00053011
0.000171908
3.07372e-05
1.39025e-05
1.60368e-05
6.16826e-05
1
1
1
1
1
1
1
1
1
1
1
1
1
1
0.554057
0.0163023
0.000664032
0.000163536
3.04041e-05
7.70463e-06
1.81448e-06
9.43383e-07
6.27093e-06
1
1
1
1
1
1
1
1
1
1
1
1
1
0.957799
0.226533
0.00168187
0.000187934
5.7932e-05
8.02444e-06
1.92877e-06
3.39874e-07
1.50136e-07
9.22004e-07
1
1
1
1
1
1
1
1
1
1
1
1
1
0.76827
0.0706991
0.000556782
0.000157667
2.63696e-05
3.74318e-06
4.84754e-07
8.6385e-08
3.76265e-08
1.56913e-07
1
1
1
1
1
1
1
1
1
1
1
1
1
0.547478
0.0112225
0.000166034
0.000101323
1.17174e-05
1.34793e-06
1.44271e-07
2.42412e-08
7.98113e-09
1.85839e-08
1
1
1
1
1
1
1
1
1
1
1
1
1
0.337227
0.000994831
0.000217925
4.62853e-05
4.18347e-06
3.54102e-07
3.89112e-08
5.85324e-09
1.63854e-09
1.70461e-09
1
1
1
1
1
1
1
1
1
1
1
1
0.93322
0.199722
0.000649223
0.00021497
1.99006e-05
1.3457e-06
8.90747e-08
8.94011e-09
1.24193e-09
4.68891e-10
2.65411e-10
1
1
1
1
1
1
1
1
1
1
1
1
0.846176
0.110146
0.000200806
0.000109729
7.12336e-06
4.25039e-07
2.57036e-08
2.47872e-09
4.98945e-10
2.6085e-10
1.17898e-10
1
1
1
1
1
1
1
1
1
1
1
1
0.745321
0.0519646
0.000162967
3.88261e-05
2.33312e-06
1.44285e-07
9.00592e-09
9.00308e-10
2.7727e-10
1.32389e-10
6.1161e-11
1
1
1
1
1
1
1
0.999999
1
0.999999
1
1
0.626005
0.0180632
0.000275765
1.86605e-05
8.81494e-07
5.25901e-08
3.51206e-09
3.58406e-10
1.29766e-10
4.99343e-11
1.88515e-11
0.999999
0.999999
0.999999
0.999999
0.999999
0.999999
0.999999
0.999998
0.999998
0.999997
1
1
0.480123
0.00273812
0.000190442
6.3291e-06
3.2526e-07
1.85649e-08
1.35253e-09
1.42495e-10
4.57307e-11
1.31277e-11
3.5476e-12
0.999996
0.999996
0.999996
0.999996
0.999995
0.999994
0.999993
0.999992
0.99999
0.999988
0.999997
0.999995
0.325317
9.45006e-05
6.30301e-05
2.22525e-06
9.65255e-08
5.81465e-09
4.8596e-10
6.07667e-11
1.31377e-11
2.64359e-12
5.42152e-13
0.999979
0.999977
0.999976
0.999975
0.999972
0.999968
0.999964
0.999957
0.999949
0.999933
0.999965
0.999945
0.223755
0.000105607
1.62767e-05
3.60934e-07
1.2942e-08
1.09222e-09
1.43867e-10
2.25536e-11
3.53639e-12
5.05122e-13
8.20161e-14
0.999878
0.999867
0.999863
0.999852
0.999834
0.99981
0.999776
0.999729
0.999662
0.999544
0.999586
0.999404
0.196847
0.000286468
7.35071e-06
1.60473e-08
3.28946e-10
4.49387e-11
3.85658e-11
7.26634e-12
9.33083e-13
1.03707e-13
1.28479e-14
0.999067
0.998976
0.998933
0.998828
0.998672
0.998458
0.998161
0.997766
0.997261
0.994701
0.983747
0.903493
0.230391
0.00813375
8.83261e-06
3.97215e-07
4.96278e-09
2.73135e-10
5.5875e-12
1.5777e-12
2.84625e-13
2.39178e-14
2.06797e-15
0.867136
0.858271
0.849887
0.835005
0.81383
0.786237
0.750463
0.70625
0.654414
0.560478
0.452443
0.232073
0.191594
0.031898
7.09887e-05
5.39359e-06
1.71831e-07
2.46236e-10
7.86147e-13
2.36414e-13
1.08232e-13
6.36917e-15
3.4607e-16
0.167414
0.158449
0.149647
0.135744
0.118022
0.097625
0.0757208
0.0530482
0.0318624
0.0027066
1.75751e-08
2.13887e-07
1.73573e-06
0.0342064
0.00491584
5.07734e-06
3.76141e-08
5.55421e-10
2.46309e-11
3.36004e-15
3.00658e-14
1.76469e-15
5.69374e-17
5.73883e-22
5.83374e-22
6.02452e-22
2.66581e-21
2.08158e-19
1.44682e-17
7.37334e-16
2.82735e-14
8.68445e-13
2.66571e-11
8.51438e-10
1.75622e-08
2.55581e-07
0.00497233
0.00579066
1.24752e-05
1.24952e-06
3.05185e-10
3.80227e-15
1.2429e-15
2.10027e-14
3.98611e-16
7.82057e-18
5.66902e-22
5.50349e-22
7.73579e-21
1.01515e-18
9.79935e-17
6.82242e-15
3.1936e-13
8.9017e-12
3.119e-10
1.11168e-08
1.94504e-07
2.46212e-06
2.30757e-05
3.51159e-05
0.00366981
1.06138e-07
4.30744e-08
2.34359e-10
2.9359e-13
1.08004e-15
1.61697e-14
5.86346e-17
7.9174e-19
5.74515e-22
4.60486e-22
1.29106e-20
1.53573e-18
1.4376e-16
1.09925e-14
4.70793e-13
9.31808e-12
3.04125e-10
1.028e-08
1.54395e-07
5.913e-06
5.85613e-05
0.000935405
0.00115258
1.06755e-08
8.54499e-11
8.38668e-14
7.45206e-16
1.06923e-15
6.98189e-15
5.20748e-18
6.17359e-20
2.39515e-22
2.32284e-22
5.17243e-21
6.55584e-19
6.28662e-17
3.73439e-15
4.39461e-14
2.43442e-13
5.83128e-12
1.16896e-10
3.35234e-09
1.39316e-05
2.93512e-05
5.34524e-08
6.11208e-07
1.60889e-09
4.8708e-11
1.87989e-13
6.29656e-17
2.99111e-16
9.03821e-16
3.21883e-19
4.05827e-21
1.40995e-23
4.55703e-24
5.4037e-22
9.18753e-20
1.53063e-16
9.36591e-15
3.33947e-14
5.00149e-14
1.06443e-12
1.93082e-11
1.20631e-10
5.29373e-12
4.20912e-11
1.17988e-08
3.40007e-09
4.41739e-11
1.38318e-12
3.05416e-15
4.27436e-18
2.17357e-17
2.87905e-17
1.50873e-20
2.29465e-22
1.09441e-25
7.51552e-26
1.58796e-24
1.61531e-22
5.37589e-21
5.78369e-18
3.15034e-16
1.50437e-15
1.26534e-16
1.12387e-15
1.69583e-14
5.04526e-14
2.7432e-13
9.70754e-12
1.58308e-11
1.09431e-12
1.29351e-14
6.46465e-17
2.09656e-18
1.554e-18
6.01105e-19
5.07915e-22
9.85496e-24
1.96833e-26
5.43374e-28
1.6463e-26
2.24039e-24
1.56565e-21
9.58381e-19
2.72285e-17
8.04804e-17
7.2866e-17
3.4307e-16
6.32643e-15
5.77912e-14
7.79914e-14
2.75202e-13
3.29237e-12
5.21662e-13
2.12502e-13
6.49141e-16
4.92396e-18
9.96242e-20
1.15273e-20
1.36898e-23
3.00695e-25
2.02126e-29
5.28551e-29
4.0914e-28
4.90754e-26
1.42519e-22
1.76434e-20
7.74886e-20
7.31009e-20
4.14528e-18
1.99506e-16
7.43158e-15
4.64686e-13
8.50158e-12
2.93431e-11
3.39842e-11
5.57715e-13
2.1391e-13
6.00937e-15
3.2217e-17
2.03934e-20
1.08916e-23
1.13706e-24
1.244e-26
1.87067e-32
6.86268e-32
5.45711e-31
9.49199e-29
2.79182e-26
5.30286e-25
2.81291e-23
6.26795e-21
1.08869e-19
1.90524e-18
3.22377e-16
2.35039e-14
2.42557e-13
5.54062e-13
5.59499e-13
2.21518e-14
2.91962e-14
1.42787e-15
1.36867e-17
1.66773e-21
1.81339e-25
8.5276e-26
5.04501e-28
3.52106e-34
3.22646e-35
9.4773e-34
8.44563e-32
1.5207e-27
1.13677e-25
2.11371e-24
5.84223e-24
6.70592e-22
4.93946e-20
5.78731e-18
3.55594e-16
3.21504e-15
6.85415e-15
6.69618e-15
4.30394e-16
1.89344e-16
1.70158e-17
9.36462e-19
1.83887e-23
7.56566e-27
3.65207e-27
1.96114e-29
2.37937e-40
2.97759e-38
3.80592e-37
5.726e-35
4.24036e-31
1.49886e-29
1.35908e-29
3.80046e-27
9.92311e-26
8.55528e-25
2.35438e-22
3.23442e-20
1.80334e-18
2.1173e-17
5.6704e-17
6.04375e-17
3.88374e-20
2.0486e-20
4.55646e-21
1.7839e-23
1.80193e-28
4.16557e-29
2.2211e-30
3.62019e-42
8.53146e-44
1.42056e-41
2.13e-39
1.71057e-37
6.828e-35
1.0828e-31
5.5079e-32
6.12648e-29
1.01962e-26
6.16034e-25
5.49643e-23
4.62605e-21
8.28055e-20
2.87461e-19
3.37033e-19
9.92763e-22
6.15409e-22
1.27578e-23
3.31476e-24
4.45459e-30
1.32815e-30
1.16841e-31
6.47543e-45
3.90126e-47
5.13378e-45
8.70279e-43
1.4804e-37
4.22113e-36
6.59622e-37
4.54412e-35
2.72069e-33
1.03841e-31
1.18597e-28
1.72029e-26
1.79424e-24
5.38926e-23
3.08158e-22
5.1703e-22
2.96468e-22
1.28087e-24
5.34719e-27
3.94759e-26
8.2468e-29
7.36091e-32
3.17047e-33
7.11208e-53
6.18133e-52
1.11442e-49
2.03569e-47
4.47783e-45
4.72479e-43
4.0387e-41
1.05904e-39
8.85386e-38
8.22781e-35
1.22888e-32
1.1026e-30
6.6307e-29
6.14425e-27
2.40311e-25
1.51796e-24
2.34158e-24
4.19048e-27
5.62295e-29
1.29947e-29
1.26941e-29
2.65637e-33
1.0177e-34
7.81033e-54
3.28242e-57
2.01028e-54
7.46698e-52
5.29383e-46
3.76383e-44
3.50597e-46
1.92052e-43
1.52239e-41
1.20458e-39
3.14935e-36
5.73908e-34
4.62331e-32
5.48701e-30
3.02566e-28
2.40567e-27
4.12083e-27
3.226e-29
1.17092e-29
1.11671e-31
1.63148e-31
8.49728e-35
3.30581e-36
3.00923e-59
3.05912e-61
8.77797e-59
1.86737e-56
9.54218e-54
1.15427e-51
6.95202e-50
3.2446e-48
2.77556e-46
4.2314e-44
3.05834e-41
8.02309e-39
6.14937e-37
2.81704e-35
2.65555e-33
2.20632e-31
2.65014e-30
5.62751e-30
2.08665e-32
9.58442e-35
1.53467e-34
1.28687e-35
8.95503e-38
1.86993e-66
2.57924e-65
2.72165e-63
8.23851e-61
7.58888e-56
8.94166e-54
2.93844e-54
5.34174e-52
5.31135e-50
4.79742e-48
1.24044e-44
3.89255e-42
4.3482e-40
2.88634e-38
3.49226e-36
4.20062e-34
6.41773e-33
1.51942e-32
1.99513e-35
1.5728e-35
1.93608e-36
4.2514e-37
1.97679e-39
5.30037e-67
1.33074e-69
5.5204e-67
1.56035e-64
5.68761e-62
9.6772e-60
8.31183e-58
1.03683e-55
1.15356e-53
1.16318e-51
2.48704e-48
6.31926e-46
4.70074e-44
5.6902e-42
1.02824e-39
1.86668e-37
3.77791e-36
1.02788e-35
5.39182e-37
4.02763e-37
1.01399e-38
5.35429e-39
4.18537e-41
9.8597e-77
2.3417e-75
5.84054e-73
2.03528e-70
6.70002e-68
1.4522e-65
2.05544e-63
3.11014e-61
4.15138e-59
5.01109e-57
7.08447e-55
4.36823e-51
4.9325e-49
4.84633e-47
5.19155e-45
6.96608e-43
1.94313e-40
6.60004e-39
2.36751e-38
1.24204e-39
1.43876e-40
1.34296e-41
3.12811e-42
1.32087e-77
1.70822e-80
1.23881e-77
6.1431e-75
2.24453e-72
6.34598e-70
1.45246e-67
2.79965e-65
4.6801e-63
6.95828e-61
8.86671e-58
6.02321e-55
1.35046e-52
8.57039e-51
2.024e-48
5.71541e-46
2.75368e-43
1.339e-41
5.69574e-41
3.58695e-42
2.7615e-42
1.35829e-43
7.1696e-44
5.05229e-86
2.05124e-84
8.95683e-82
4.57713e-79
1.77276e-76
5.51726e-74
1.43586e-71
3.22606e-69
6.41317e-67
1.15226e-64
2.07404e-62
1.1726e-58
3.98261e-56
3.82945e-54
4.40568e-53
1.1987e-49
1.31679e-46
1.11558e-44
6.46459e-44
5.32476e-44
1.92095e-44
1.91912e-45
6.67411e-46
2.67875e-91
1.9829e-91
2.09999e-88
1.51502e-85
8.2209e-83
3.54405e-80
1.26715e-77
3.88852e-75
1.05361e-72
2.58243e-70
6.14482e-68
2.53067e-64
3.04473e-63
9.15304e-60
7.36916e-57
7.1963e-55
2.83549e-52
3.99356e-49
5.83687e-47
4.42908e-46
9.90561e-47
2.25467e-47
5.08709e-48
1.52097e-101
2.93985e-98
1.21047e-94
2.10979e-91
2.1429e-88
1.52102e-85
8.33919e-83
3.76147e-80
1.4599e-77
5.05125e-75
1.60632e-72
6.54686e-70
2.69929e-65
4.71742e-63
3.10624e-62
4.01175e-59
9.10096e-57
3.9006e-52
1.30996e-49
1.47156e-48
4.67703e-49
2.37067e-49
7.18547e-50
1.49799e-107
4.98223e-104
1.39926e-100
2.60332e-97
3.53702e-94
3.74627e-91
3.25615e-88
2.41742e-85
1.58327e-82
9.3966e-80
5.17091e-77
3.7917e-74
2.37014e-71
4.10786e-68
1.34868e-64
3.79493e-62
1.11169e-59
1.57843e-55
1.79896e-52
3.64037e-51
2.97599e-51
2.97151e-51
1.25131e-51
4.80114e-122
1.17978e-117
2.47239e-113
2.21746e-109
1.16752e-105
4.33288e-102
1.25269e-98
3.01138e-95
6.31184e-92
1.19797e-88
2.12512e-85
3.62687e-82
1.04551e-78
1.81528e-75
3.10168e-72
7.42806e-69
3.67496e-65
5.50885e-62
1.56255e-56
3.91837e-54
2.50823e-53
7.80957e-52
2.79842e-52
0.000175045
1.11247e-05
1.25726e-07
1.10235e-07
0.000154636
5.77752e-05
4.0193e-07
1.32674e-07
1.57756e-05
3.57181e-05
1.29269e-05
2.63431e-07
2.53603e-07
9.50803e-07
2.58193e-06
1.09827e-06
2.37979e-08
3.57316e-08
4.13783e-08
8.22784e-08
2.20388e-09
3.04564e-09
2.97686e-09
1.78911e-09
2.27235e-10
2.54872e-10
2.50554e-10
1.87307e-10
7.76288e-11
6.91235e-11
6.23394e-11
4.56538e-11
3.19957e-11
2.23938e-11
1.49408e-11
8.10092e-12
7.15835e-12
4.2456e-12
2.33692e-12
1.04852e-12
9.87161e-13
5.64198e-13
2.93896e-13
1.22914e-13
1.211e-13
7.02097e-14
3.54115e-14
1.402e-14
1.51661e-14
8.76869e-15
4.17819e-15
1.54836e-15
1.90815e-15
1.07885e-15
4.75636e-16
1.64164e-16
2.59426e-16
1.2962e-16
5.12971e-17
1.65724e-17
3.93713e-17
1.49827e-17
5.16614e-18
1.58117e-18
5.46964e-18
1.5717e-18
4.81281e-19
1.41341e-19
6.10607e-19
1.44451e-19
4.09098e-20
1.16092e-20
5.14789e-20
1.15503e-20
3.13993e-21
8.71857e-22
3.42821e-21
8.09554e-22
2.16036e-22
5.9884e-23
1.92742e-22
4.98863e-23
1.3281e-23
3.76388e-24
9.62652e-24
2.74372e-24
7.32508e-25
2.16862e-25
4.36326e-25
1.37446e-25
3.71013e-26
1.17088e-26
1.48003e-26
6.2185e-27
1.75841e-27
6.06944e-28
5.41738e-28
2.48708e-28
7.78505e-29
2.98942e-29
2.33262e-29
1.03345e-29
3.41469e-30
1.38838e-30
9.96337e-31
4.31558e-31
1.55983e-31
6.25597e-32
4.2909e-32
2.02249e-32
7.55709e-33
2.79748e-33
1.97543e-33
1.00112e-33
3.19586e-34
1.23874e-34
1.22634e-34
3.81633e-35
1.21972e-35
5.31739e-36
5.05728e-36
1.38925e-36
4.86396e-37
2.06648e-37
1.66729e-37
5.21113e-38
1.88802e-38
7.39513e-39
5.48513e-39
1.82206e-39
6.62918e-40
2.48289e-40
1.61883e-40
5.78944e-41
2.04946e-41
7.8164e-42
4.38116e-42
1.64145e-42
5.8086e-43
2.30239e-43
1.03771e-43
4.08242e-44
1.53991e-44
6.39838e-45
2.18178e-45
9.43451e-46
3.82291e-46
1.68272e-46
6.41211e-47
2.09016e-47
8.8928e-48
4.19564e-48
1.60691e-48
4.17349e-49
1.9937e-49
1.09637e-49
2.44624e-50
8.5002e-51
4.52153e-51
2.80319e-51
3.86352e-52
1.92608e-52
1.05482e-52
6.56469e-53
1.39033e-52
7.24939e-53
3.69953e-53
1.66834e-53
2.3995e-08
1.57695e-09
5.34229e-11
6.18021e-12
5.38536e-13
2.58367e-14
9.27403e-16
3.17235e-17
1.01739e-18
2.94471e-20
7.56379e-22
1.69391e-23
3.22759e-25
5.05457e-27
6.16641e-29
5.32169e-31
2.52424e-33
3.83686e-36
8.7787e-37
1.87721e-08
1.11582e-09
5.23084e-11
5.58211e-12
1.17334e-12
7.91719e-14
2.61673e-15
8.41261e-17
2.64066e-18
7.52998e-20
1.91484e-21
4.28241e-23
8.26052e-25
1.33872e-26
1.75234e-28
1.74383e-30
1.19255e-32
4.62209e-35
4.19508e-36
1.69676e-08
8.61838e-10
3.98916e-11
5.95281e-12
1.0204e-12
5.68201e-14
1.98209e-15
6.91724e-17
2.2489e-18
6.57857e-20
1.71642e-21
3.948e-23
7.87449e-25
1.33182e-26
1.85964e-28
2.06112e-30
1.6909e-32
8.95855e-35
1.92428e-36
8.62768e-09
2.75741e-10
2.96762e-11
5.46023e-12
4.38502e-13
1.90317e-14
7.51405e-16
2.80299e-17
9.46345e-19
2.86576e-20
7.73242e-22
1.83986e-23
3.80685e-25
6.72163e-27
9.82459e-29
1.13681e-30
9.75077e-33
5.46822e-35
4.91486e-37
1.06683e-08
1.0065e-10
1.41058e-11
1.63852e-12
8.95921e-14
3.9859e-15
1.67354e-16
6.39495e-18
2.20128e-19
6.79326e-21
1.86538e-22
4.51068e-24
9.47374e-26
1.69641e-27
2.52075e-29
2.98172e-31
2.63124e-33
1.53312e-35
1.05897e-37
9.50829e-10
6.62134e-11
4.84871e-12
3.03854e-13
1.608e-14
7.70515e-16
3.31357e-17
1.27909e-18
4.43538e-20
1.37643e-21
3.79631e-23
9.21375e-25
1.94102e-26
3.48303e-28
5.18418e-30
6.15273e-32
5.46341e-34
3.21639e-36
2.04027e-38
8.92807e-11
1.37452e-11
8.91712e-13
5.0201e-14
2.76525e-15
1.36985e-16
6.02228e-18
2.3652e-19
8.31006e-21
2.60463e-22
7.24048e-24
1.76903e-25
3.74981e-27
6.7708e-29
1.01453e-30
1.21328e-32
1.0873e-34
6.48147e-37
3.54923e-39
1.57715e-11
1.70925e-12
1.15617e-13
7.26935e-15
4.20101e-16
2.13931e-17
9.63203e-19
3.85991e-20
1.37839e-21
4.37701e-23
1.22978e-24
3.03204e-26
6.48003e-28
1.17951e-29
1.78244e-31
2.15177e-33
1.94938e-35
1.17818e-37
5.59372e-40
2.16868e-12
1.98536e-13
1.41193e-14
9.48972e-16
5.68699e-17
2.97251e-18
1.36781e-19
5.58093e-21
2.02261e-22
6.50111e-24
1.84512e-25
4.58873e-27
9.88369e-29
1.81254e-30
2.76017e-32
3.36014e-34
3.07345e-36
1.87974e-38
7.97027e-41
2.5603e-13
2.28043e-14
1.6709e-15
1.1552e-16
7.07327e-18
3.76759e-19
1.76231e-20
7.29007e-22
2.67239e-23
8.67208e-25
2.48128e-26
6.21456e-28
1.34722e-29
2.48611e-31
3.8104e-33
4.67162e-35
4.30788e-37
2.66112e-39
1.02987e-41
2.866e-14
2.51638e-15
1.88237e-16
1.32326e-17
8.20006e-19
4.41795e-20
2.08853e-21
8.71919e-23
3.22133e-24
1.05232e-25
3.02837e-27
7.62421e-29
1.66092e-30
3.08011e-32
4.74568e-34
5.85282e-36
5.43459e-38
3.38592e-40
1.21312e-42
3.09995e-15
2.65813e-16
2.01588e-17
1.4305e-18
8.90869e-20
4.82477e-21
2.29312e-22
9.6205e-24
3.56984e-25
1.1707e-26
3.38091e-28
8.54032e-30
1.86679e-31
3.47452e-33
5.37554e-35
6.66206e-37
6.22262e-39
3.9057e-41
1.3094e-43
3.22508e-16
2.69448e-17
2.05844e-18
1.46272e-19
9.0948e-21
4.92434e-22
2.3422e-23
9.83726e-25
3.65487e-26
1.20022e-27
3.47138e-29
8.78391e-31
1.92397e-32
3.59002e-34
5.57193e-36
6.93331e-38
6.50899e-40
4.11207e-42
1.31202e-44
3.20382e-17
2.61627e-18
2.00373e-19
1.41492e-20
8.73166e-22
4.7043e-23
2.23043e-24
9.34799e-26
3.46844e-27
1.13819e-28
3.29149e-30
8.33212e-32
1.82686e-33
3.41455e-35
5.31274e-37
6.63334e-39
6.25549e-41
3.975e-43
1.25242e-45
3.00704e-18
2.4216e-19
1.85326e-20
1.2919e-21
7.87504e-23
4.20606e-24
1.98177e-25
8.26785e-27
3.0576e-28
1.00114e-29
2.89137e-31
7.31575e-33
1.60454e-34
3.00254e-36
4.68134e-38
5.86293e-40
5.55215e-42
3.54733e-44
1.12791e-46
2.62243e-19
2.1234e-20
1.61974e-21
1.10888e-22
6.65544e-24
3.51512e-25
1.64259e-26
6.81079e-28
2.50754e-29
8.1851e-31
2.35938e-32
5.96442e-34
1.30825e-35
2.45057e-37
3.82832e-39
4.80903e-41
4.57292e-43
2.93735e-45
9.42854e-48
2.13637e-20
1.75527e-21
1.32658e-22
8.89767e-24
5.25349e-25
2.74076e-26
1.26914e-27
5.22714e-29
1.91527e-30
6.2316e-32
1.79282e-33
4.52855e-35
9.93541e-37
1.86334e-38
2.91735e-40
3.67648e-42
3.51103e-44
2.26761e-46
7.31998e-49
1.69573e-21
1.37838e-22
1.01665e-23
6.65348e-25
3.85508e-26
1.98834e-27
9.13344e-29
3.7388e-30
1.36403e-31
4.42621e-33
1.27168e-34
3.21149e-36
7.05156e-38
1.32483e-39
2.07985e-41
2.63068e-43
2.52405e-45
1.63955e-47
5.31582e-50
1.31963e-22
1.04417e-23
7.42933e-25
4.69672e-26
2.65307e-27
1.34765e-28
6.12224e-30
2.49145e-31
9.0674e-33
2.93914e-34
8.44261e-36
2.13376e-37
4.69336e-39
8.84088e-41
1.39273e-42
1.76919e-44
1.70631e-46
1.11519e-48
3.6313e-51
9.89417e-24
7.60709e-25
5.24064e-26
3.21514e-27
1.76885e-28
8.73431e-30
3.88245e-31
1.5628e-32
5.65619e-34
1.82858e-35
5.25762e-37
1.33223e-38
2.93982e-40
5.5587e-42
8.79513e-44
1.12295e-45
1.08938e-47
7.16695e-50
2.34334e-52
7.00789e-25
5.28428e-26
3.56464e-27
2.14201e-28
1.15218e-29
5.54853e-31
2.41665e-32
9.53949e-34
3.38722e-35
1.08306e-36
3.10509e-38
7.86817e-40
1.74006e-41
3.30351e-43
5.25669e-45
6.75346e-47
6.59515e-49
4.37013e-51
1.434e-53
4.64358e-26
3.46765e-27
2.3177e-28
1.37595e-29
7.29615e-31
3.46038e-32
1.48521e-33
5.75782e-35
2.00961e-36
6.34315e-38
1.79473e-39
4.4969e-41
9.90103e-43
1.88054e-44
3.00303e-46
3.87607e-48
3.80842e-50
2.54115e-52
8.36025e-55
2.87813e-27
2.13723e-28
1.43098e-29
8.46548e-31
4.45971e-32
2.09851e-33
8.93169e-35
3.42694e-36
1.18413e-37
3.69978e-39
1.03408e-40
2.56436e-42
5.60927e-44
1.05998e-45
1.6845e-47
2.16989e-49
2.13769e-51
1.43319e-53
4.72417e-56
1.66824e-28
1.24105e-29
8.34974e-31
4.97814e-32
2.62219e-33
1.23106e-34
5.22406e-36
1.99522e-37
6.8605e-39
2.13228e-40
5.92383e-42
1.46131e-43
3.18124e-45
5.98209e-47
9.46698e-49
1.21721e-50
1.20072e-52
8.07892e-55
2.66638e-57
9.02582e-30
6.80506e-31
4.62793e-32
2.79019e-33
1.48228e-34
6.98047e-36
2.96708e-37
1.13255e-38
3.88935e-40
1.20711e-41
3.34659e-43
8.24051e-45
1.79123e-46
3.36349e-48
5.3196e-50
6.84347e-52
6.76281e-54
4.5677e-56
1.50857e-58
4.55618e-31
3.52004e-32
2.44659e-33
1.49299e-34
8.05019e-36
3.82639e-37
1.63628e-38
6.26599e-40
2.15636e-41
6.70201e-43
1.85877e-44
4.57881e-46
9.96106e-48
1.87191e-49
2.96419e-51
3.82073e-53
3.78631e-55
2.56912e-57
8.48605e-60
2.14771e-32
1.71851e-33
1.23231e-34
7.67585e-36
4.19414e-37
2.02836e-38
8.76333e-40
3.37953e-41
1.16928e-42
3.6491e-44
1.01483e-45
2.50587e-47
5.46459e-49
1.02903e-50
1.63304e-52
2.11048e-54
2.09852e-56
1.43094e-58
4.72378e-61
9.63634e-34
7.93216e-35
5.91318e-36
3.79575e-37
2.11142e-38
1.03893e-39
4.5601e-41
1.77733e-42
6.20158e-44
1.94849e-45
5.44639e-47
1.35067e-48
2.95696e-50
5.58635e-52
8.89283e-54
1.15298e-55
1.1506e-57
7.8844e-60
2.59937e-62
4.12287e-35
3.47275e-36
2.70978e-37
1.80281e-38
1.03018e-39
5.14675e-41
2.30758e-42
9.11971e-44
3.21837e-45
1.02054e-46
2.87336e-48
7.16967e-50
1.57805e-51
2.99454e-53
4.78596e-55
6.22864e-57
6.23948e-59
4.29624e-61
1.4136e-63
1.66855e-36
1.46409e-37
1.18912e-38
8.23526e-40
4.86525e-41
2.47836e-42
1.13634e-43
4.56989e-45
1.63538e-46
5.24567e-48
1.49066e-49
3.74869e-51
8.30629e-53
1.58495e-54
2.54524e-56
3.32665e-58
3.34575e-60
2.31455e-62
7.59567e-65
6.38672e-38
5.93448e-39
5.01345e-40
3.62881e-41
2.22347e-42
1.16367e-43
5.45356e-45
2.23913e-46
8.14486e-48
2.64819e-49
7.60908e-51
1.93145e-52
4.31364e-54
8.28459e-56
1.33771e-57
1.75662e-59
1.77397e-61
1.23274e-63
4.03236e-66
2.31125e-39
2.29485e-40
2.03819e-41
1.54685e-42
9.85489e-44
5.32765e-45
2.55708e-46
1.07434e-47
3.98078e-49
1.3144e-50
3.82496e-52
9.81336e-54
2.21146e-55
4.27855e-57
6.95071e-59
9.17341e-61
9.30279e-63
6.49195e-65
2.11542e-67
7.9004e-41
8.45359e-42
8.0173e-43
6.39635e-44
4.24815e-45
2.37951e-46
1.17435e-47
5.05643e-49
1.91212e-50
6.4223e-52
1.89555e-53
4.92135e-55
1.12011e-56
2.18469e-58
3.5726e-60
4.74013e-62
4.8272e-64
3.38195e-66
1.09718e-68
2.55174e-42
2.97427e-43
3.06069e-44
2.57276e-45
1.78593e-46
1.03851e-47
5.29476e-49
2.33888e-50
9.04188e-52
3.09374e-53
9.27313e-55
2.43884e-56
5.61084e-58
1.10392e-59
1.81794e-61
2.42536e-63
2.48024e-65
1.74393e-67
5.62984e-70
7.81457e-44
1.0278e-44
1.13626e-45
1.00933e-46
7.34034e-48
4.442e-49
2.34847e-50
1.06547e-51
4.21707e-53
1.47176e-54
4.48486e-56
1.19591e-57
2.78296e-59
5.52616e-61
9.16744e-63
1.22997e-64
1.26298e-66
8.90915e-69
2.86054e-71
2.33609e-45
3.47633e-46
4.11231e-47
3.87376e-48
2.95915e-49
1.87409e-50
1.02616e-51
4.79096e-53
1.94385e-54
6.9272e-56
2.148e-57
5.81151e-59
1.36867e-60
2.74407e-62
4.58677e-64
6.18916e-66
6.38073e-68
4.51381e-70
1.44081e-72
6.96399e-47
1.14364e-47
1.45546e-48
1.45913e-49
1.17456e-50
7.81573e-52
4.42851e-53
2.13158e-54
8.87515e-56
3.2324e-57
1.02067e-58
2.80343e-60
6.6847e-62
1.35356e-63
2.28002e-65
3.09417e-67
3.20226e-69
2.27082e-71
7.20314e-74
2.02574e-48
3.66961e-49
5.05777e-50
5.41429e-51
4.63008e-52
3.22127e-53
1.8936e-54
9.40794e-56
4.02328e-57
1.49859e-58
4.82127e-60
1.34491e-61
3.24778e-63
6.64289e-65
1.12769e-66
1.53903e-68
1.59866e-70
1.13592e-72
3.57941e-75
5.67643e-50
1.15252e-50
1.73151e-51
2.00309e-52
1.80886e-53
1.31677e-54
8.04714e-56
4.13035e-57
1.81537e-58
6.91885e-60
2.26874e-61
6.429e-63
1.57252e-64
3.24909e-66
5.55841e-68
7.62797e-70
7.9509e-72
5.65831e-74
1.77133e-76
1.53946e-51
3.56108e-52
5.92192e-53
7.35328e-54
7.02147e-55
5.36137e-56
3.40946e-57
1.80896e-58
8.17464e-60
3.18868e-61
1.06586e-62
3.06841e-64
7.60179e-66
1.58652e-67
2.73485e-69
3.7732e-71
3.94558e-73
2.81102e-75
8.51897e-78
4.03044e-53
1.07334e-53
1.96218e-54
2.62139e-55
2.68891e-56
2.17098e-57
1.44455e-58
7.95244e-60
3.70192e-61
1.47824e-62
5.03761e-64
1.47334e-65
3.69692e-67
7.79281e-69
1.35338e-70
1.87687e-72
1.96845e-74
1.40337e-76
2.76142e-79
4.09526e-54
6.97205e-55
9.06978e-56
9.37008e-57
7.98094e-58
5.71617e-59
3.49965e-60
1.83419e-61
8.44732e-63
3.45779e-64
1.20265e-65
3.57653e-67
9.0958e-69
1.93764e-70
3.39194e-72
4.73015e-74
4.97747e-76
3.55239e-78
2.60599e-79
)
;

boundaryField
{
    leftWall
    {
        type            zeroGradient;
    }
    rightWall
    {
        type            zeroGradient;
    }
    lowerWall
    {
        type            zeroGradient;
    }
    atmosphere
    {
        type            inletOutlet;
        inletValue      uniform 0;
        value           nonuniform List<scalar> 
46
(
0
0
0
0
0
0
0
0
0
0
0
0
0
0
0
0
0
0
0
0
2.50823e-53
7.80957e-52
2.79842e-52
1.39033e-52
7.24939e-53
3.69953e-53
1.66834e-53
4.09526e-54
6.97205e-55
9.06978e-56
9.37008e-57
7.98094e-58
5.71617e-59
3.49965e-60
1.83419e-61
8.44732e-63
3.45779e-64
1.20265e-65
3.57653e-67
9.0958e-69
1.93764e-70
3.39194e-72
4.73015e-74
4.97747e-76
3.55239e-78
2.60599e-79
)
;
    }
    defaultFaces
    {
        type            empty;
    }
}


// ************************************************************************* //
