/*--------------------------------*- C++ -*----------------------------------*\
  =========                 |
  \\      /  F ield         | OpenFOAM: The Open Source CFD Toolbox
   \\    /   O peration     | Website:  https://openfoam.org
    \\  /    A nd           | Version:  13
     \\/     M anipulation  |
\*---------------------------------------------------------------------------*/
FoamFile
{
    format      ascii;
    class       volScalarField;
    location    "0.1";
    object      p;
}
// * * * * * * * * * * * * * * * * * * * * * * * * * * * * * * * * * * * * * //

dimensions      [1 -1 -2 0 0 0 0];

internalField   nonuniform List<scalar> 
2268
(
1971.02
1966.88
1951.32
1926.59
1893.52
1851.41
1799.41
1736.6
1661.89
1574.19
1471.52
1352.18
1215.55
1059.31
878.065
671.462
459.152
277.041
154.207
99.0846
73.7744
70.5716
79.796
1912.32
1908.14
1892.54
1867.82
1834.75
1792.61
1740.56
1677.67
1602.83
1514.94
1411.97
1292.1
1154.62
997.246
814.68
606.273
391.541
207.873
83.8415
36.7638
40.4471
61.2896
78.1927
1853.77
1849.54
1833.87
1809.16
1776.07
1733.88
1681.74
1618.7
1543.61
1455.34
1351.76
1230.88
1091.84
932.272
746.691
533.659
312.589
128.56
31.8339
13.0531
19.1076
44.1428
68.3449
1795.41
1791.08
1775.33
1750.62
1717.52
1675.24
1622.97
1559.7
1484.26
1395.46
1290.97
1168.61
1027.45
864.801
673.801
450.089
217.666
56.9195
11.7145
9.16177
10.8207
21.4455
46.5854
1737.25
1732.8
1716.95
1692.25
1659.13
1616.76
1564.32
1500.78
1424.91
1335.44
1229.82
1105.57
961.727
795.007
595.382
353.911
117.318
18.3284
8.08902
8.04626
8.7072
10.7513
20.8973
1679.31
1674.72
1658.79
1634.1
1600.95
1558.48
1505.87
1442.03
1365.68
1275.45
1168.54
1042.18
895.36
723.575
510.126
245.403
42.81
9.77657
7.49162
7.59109
7.83454
8.15452
10.4375
1621.6
1616.83
1600.81
1576.14
1542.97
1500.41
1447.61
1383.44
1306.58
1215.53
1107.14
978.563
829.011
651.619
418.835
138.006
16.5203
7.81871
7.21841
7.29138
7.35575
7.19151
7.66435
1564.14
1559.11
1543.03
1518.39
1485.19
1442.52
1389.53
1325
1247.59
1155.63
1045.58
914.666
762.748
578.613
323.252
56.6631
9.78622
7.03951
7.00966
7.05755
7.03352
6.76355
6.75295
6.17707
6.2172
6.24232
6.26524
6.28332
6.2961
6.30414
6.30835
6.30968
6.30903
6.30706
6.30434
6.30129
6.29822
6.29539
6.29295
6.29104
6.28973
6.28908
6.11405
6.1571
6.18327
6.207
6.22532
6.23806
6.24591
6.24996
6.25115
6.25038
6.24832
6.24552
6.24242
6.23931
6.23645
6.23398
6.23206
6.23074
6.23009
6.0467
6.09554
6.12412
6.14948
6.16827
6.18091
6.18847
6.19213
6.19298
6.19193
6.18966
6.1867
6.18348
6.18028
6.17735
6.17485
6.1729
6.17155
6.17089
5.97458
6.03194
6.06508
6.09289
6.11225
6.12467
6.1317
6.13478
6.13513
6.13366
6.13107
6.12787
6.12447
6.12114
6.11812
6.11555
6.11356
6.11219
6.11152
5.89709
5.96527
6.00662
6.03745
6.05738
6.06937
6.07563
6.07791
6.07757
6.07555
6.07254
6.06902
6.06539
6.06189
6.05875
6.0561
6.05405
6.05264
6.05195
5.81292
5.8984
5.94985
5.98347
6.00379
6.01505
6.02025
6.02148
6.02027
6.01757
6.01403
6.01013
6.00622
6.00252
5.99924
5.99648
5.99436
5.99292
5.9922
5.72091
5.83308
5.8951
5.93123
5.95161
5.96174
5.96552
5.96545
5.96319
5.95968
5.95554
5.95119
5.94695
5.94302
5.93956
5.93669
5.93449
5.933
5.93226
5.6152
5.76225
5.84084
5.88095
5.901
5.9094
5.91138
5.90975
5.90627
5.90184
5.89701
5.89217
5.88756
5.88337
5.87972
5.87672
5.87443
5.87289
5.87212
1474.9
1469.36
1453.28
1428.68
1395.46
1352.67
1299.41
1234.38
1156.16
1062.81
950.258
816.072
660.487
460.249
179.253
16.7851
7.36739
6.58679
6.70333
6.73727
6.65314
6.36192
5.7102
1355.41
1349.34
1333.26
1308.84
1275.76
1233.02
1179.69
1114.36
1035.56
940.975
825.993
689.665
530.566
305.398
43.6036
8.04652
6.2964
6.30424
6.39474
6.41159
6.35453
6.221
6.17657
1238.24
1231.67
1215.69
1191.62
1158.89
1116.5
1063.53
998.461
919.87
825.083
709.343
574.06
411.41
170.474
11.395
6.45924
5.94231
6.04808
6.13041
6.17199
6.19176
6.20292
6.47741
1123.89
1116.92
1101.2
1077.69
1045.6
1003.99
951.941
887.92
810.622
717.047
602.969
472.021
305.486
70.7794
7.53686
5.82867
5.76004
5.84106
5.90908
5.97106
6.02967
6.08241
6.25996
1012.82
1005.56
990.307
967.575
936.468
896.128
845.652
783.551
708.717
617.907
508.153
384.219
216.035
18.7067
5.93387
5.42826
5.56181
5.64114
5.70816
5.77009
5.82472
5.86888
5.93597
905.41
898.005
883.413
861.71
831.96
793.394
745.167
685.878
614.644
528.083
424.946
309.301
144.849
7.56352
5.51372
5.30057
5.39784
5.45488
5.51348
5.56457
5.60748
5.64271
5.67425
801.931
794.511
780.789
760.365
732.341
696.049
650.717
595.07
528.446
447.405
352.444
244.824
89.669
6.32049
5.2961
5.18052
5.22348
5.27238
5.32091
5.3617
5.39707
5.42614
5.44574
702.579
695.28
682.62
663.712
637.764
604.212
562.366
511.106
449.959
375.538
289.98
191.005
50.1409
5.40021
4.85711
5.01402
5.02564
5.09079
5.12888
5.1615
5.19066
5.21341
5.22607
607.439
600.395
588.958
571.779
548.218
517.808
479.95
433.69
378.713
311.785
236.408
146.565
24.8757
5.1019
4.68635
4.87628
4.84704
4.90994
4.93715
4.9629
4.98642
5.00466
5.0149
516.153
509.472
499.384
484.106
463.176
436.218
402.724
361.909
313.581
254.765
190.054
109.848
11.5248
5.00734
4.64851
4.72589
4.69315
4.72716
4.74596
4.76581
4.78497
4.80084
4.81107
428.378
422.185
413.563
400.334
382.25
359.015
330.216
295.228
253.937
203.686
149.809
79.1336
5.92125
4.60371
4.52482
4.54238
4.5341
4.54357
4.55396
4.56894
4.58537
4.60048
4.61183
345.167
339.595
332.542
321.484
306.425
287.138
263.297
234.415
200.402
158.977
115.561
53.7338
4.64753
4.40102
4.40409
4.37604
4.36301
4.3543
4.35797
4.3701
4.38589
4.40196
4.4156
265.522
260.512
254.995
246.034
233.906
218.433
199.356
176.295
149.12
115.972
81.7081
30.8468
4.44651
4.40885
4.31321
4.21459
4.17684
4.15509
4.15482
4.16721
4.18513
4.20423
4.2215
183.602
178.998
175.001
168.094
158.87
147.206
133.005
116.085
96.2752
71.9887
46.1166
12.2858
3.83843
4.43114
4.21743
4.03066
3.95858
3.93632
3.93987
3.95801
3.98199
4.00664
4.02899
106.469
102.61
100.523
96.3063
90.8769
84.1885
76.4723
67.9513
58.8186
48.1729
33.3394
15.2028
-1.01855
3.99426
3.99617
3.74949
3.68337
3.68926
3.70901
3.74117
3.77619
3.80918
3.83814
51.4374
49.348
49.0101
47.6214
45.9834
44.1048
42.239
40.5278
39.3815
38.6096
29.7905
15.6417
12.6054
3.50283
3.6714
3.29575
3.32208
3.40463
3.46013
3.51766
3.56893
3.6129
3.64969
12.5673
12.0021
11.4412
10.5614
9.43022
8.12612
6.71508
5.20915
3.66621
1.84129
1.42882
1.1089
1.27927
1.78067
2.35971
2.49629
2.86839
3.08009
3.19788
3.29203
3.36374
3.42022
3.46517
2.04313
2.04124
2.02949
2.01258
1.98593
1.94738
1.88973
1.8003
1.66955
1.52253
1.33832
0.993854
0.669085
0.0694833
-0.052638
1.76247
2.38935
2.75244
2.94625
3.07663
3.16714
3.2347
3.28659
1.95818
1.95507
1.94539
1.93084
1.9088
1.87741
1.83259
1.76928
1.6862
1.58114
1.37525
0.997584
0.519541
0.0212873
0.308289
1.59808
2.13674
2.52193
2.74083
2.88613
2.98633
3.05999
3.11592
1.8974
1.89464
1.88739
1.87622
1.86
1.83757
1.80743
1.76814
1.71923
1.65253
1.50625
1.18226
0.744806
0.518067
0.904537
1.66752
2.08664
2.40053
2.59219
2.72776
2.82512
2.89814
2.95432
1.83765
1.83534
1.83079
1.82348
1.81317
1.79968
1.78304
1.7629
1.74037
1.71407
1.65171
1.49596
1.28618
1.22407
1.45482
1.868
2.13631
2.34214
2.48485
2.59613
2.68154
2.74847
2.80157
1.7752
1.77395
1.77177
1.7682
1.76346
1.75803
1.7523
1.74654
1.74321
1.7439
1.73448
1.6916
1.64092
1.68563
1.84564
2.03077
2.16752
2.292
2.39299
2.47894
2.54972
2.60812
2.6562
1.71334
1.71337
1.71311
1.71274
1.71273
1.71369
1.71616
1.72087
1.73013
1.74463
1.7575
1.76354
1.78071
1.84332
1.94917
2.05273
2.13798
2.22287
2.29807
2.36527
2.42353
2.47361
2.51623
1.64994
1.65079
1.65209
1.65429
1.65789
1.66341
1.67139
1.68268
1.69878
1.71983
1.74302
1.768
1.80335
1.85737
1.92513
1.9988
2.06834
2.13524
2.1956
2.25039
2.29924
2.34232
2.3799
1.58397
1.58516
1.58767
1.59176
1.59782
1.60631
1.61773
1.6328
1.65239
1.67636
1.70374
1.73546
1.77502
1.82332
1.8763
1.9305
1.98501
2.03828
2.08798
2.13383
2.17546
2.21282
2.246
1.51457
1.51606
1.51945
1.52482
1.53243
1.54269
1.55599
1.57286
1.59373
1.6185
1.64682
1.67904
1.7162
1.75812
1.8027
1.84785
1.89239
1.93589
1.97729
2.01609
2.05188
2.08445
2.11381
1.44129
1.44313
1.44709
1.45319
1.46165
1.47279
1.48689
1.50427
1.52513
1.54937
1.57685
1.60761
1.64157
1.67812
1.71609
1.7543
1.79214
1.82891
1.86409
1.89732
1.92832
1.95685
1.98287
1.36448
1.36656
1.37077
1.37718
1.38597
1.39736
1.41152
1.42863
1.44874
1.47175
1.49749
1.52577
1.55628
1.5884
1.62132
1.65428
1.6868
1.71841
1.74877
1.77759
1.80465
1.82976
1.85286
1.28429
1.28645
1.29067
1.29709
1.30583
1.31703
1.33077
1.34712
1.36605
1.38742
1.41106
1.43668
1.46389
1.49217
1.52094
1.54967
1.57793
1.60543
1.63188
1.65707
1.68084
1.70301
1.72355
1.20074
1.20283
1.20692
1.21316
1.22161
1.23233
1.24536
1.26067
1.2782
1.29779
1.31923
1.34224
1.36644
1.39139
1.41666
1.44184
1.46659
1.49065
1.51383
1.53596
1.5569
1.57651
1.59478
1.11387
1.1158
1.1197
1.12565
1.13367
1.14376
1.15591
1.17006
1.18611
1.2039
1.2232
1.24376
1.26524
1.28728
1.30952
1.33166
1.3534
1.37454
1.39491
1.41439
1.43286
1.45022
1.46644
1.02388
1.02566
1.02934
1.03495
1.04244
1.05181
1.06301
1.07596
1.09053
1.10657
1.12386
1.14217
1.1612
1.18066
1.20026
1.21973
1.23885
1.25743
1.27534
1.29248
1.30875
1.32408
1.33844
0.931183
0.932812
0.936251
0.941461
0.948388
0.956996
0.967218
0.978962
0.992103
1.00648
1.02191
1.03816
1.05498
1.07214
1.08938
1.10648
1.12325
1.13956
1.15527
1.1703
1.18458
1.19806
1.2107
0.836177
0.837671
0.840844
0.845629
0.851957
0.859783
0.869031
0.879602
0.891373
0.90419
0.917878
0.932238
0.947057
0.962121
0.977226
0.992188
1.00685
1.02109
1.0348
1.0479
1.06036
1.07212
1.08318
0.739225
0.740594
0.743484
0.747823
0.753539
0.760581
0.76887
0.778305
0.788767
0.800112
0.812178
0.82479
0.837763
0.850913
0.864068
0.877072
0.889796
0.902129
0.913989
0.925319
0.936084
0.946243
0.955797
0.640602
0.641851
0.644449
0.648332
0.653435
0.659704
0.667057
0.675399
0.684613
0.694566
0.705113
0.716097
0.727356
0.738734
0.750085
0.761276
0.772197
0.782759
0.792895
0.80256
0.811734
0.820385
0.828518
0.540549
0.541674
0.543973
0.5474
0.551898
0.557409
0.563855
0.571143
0.579165
0.5878
0.596915
0.60637
0.616026
0.625748
0.635411
0.644904
0.654136
0.663034
0.671546
0.679628
0.687298
0.694514
0.701289
0.439312
0.440304
0.442305
0.44528
0.449181
0.453949
0.459511
0.465781
0.472658
0.480031
0.487781
0.495786
0.503925
0.512082
0.52015
0.528038
0.53567
0.542989
0.549961
0.55657
0.562766
0.568595
0.574061
0.336953
0.337805
0.339516
0.342056
0.345381
0.349435
0.35415
0.359444
0.365226
0.371395
0.377846
0.384471
0.391166
0.397833
0.404382
0.410737
0.416838
0.422643
0.428125
0.433274
0.438086
0.442582
0.446782
0.233363
0.234062
0.235498
0.237627
0.240411
0.243796
0.247717
0.252098
0.256855
0.261896
0.267126
0.272454
0.277787
0.283042
0.288146
0.293037
0.297669
0.302012
0.306052
0.309788
0.313237
0.31643
0.319397
0.128979
0.129511
0.130668
0.132391
0.134645
0.137378
0.140527
0.144023
0.147789
0.151742
0.155799
0.159878
0.163902
0.167798
0.171508
0.174983
0.178189
0.181107
0.183734
0.186081
0.188183
0.190091
0.19185
0.0246255
0.0249227
0.0257851
0.027089
0.0287933
0.0308479
0.0331972
0.035779
0.0385257
0.0413664
0.0442294
0.0470449
0.0497478
0.0522806
0.0545956
0.0566573
0.0584427
0.0599423
0.0611601
0.0621121
0.0628475
0.0634764
0.0640542
3.51283
4.21969
4.37781
4.64974
5.17983
4.77925
4.74353
4.94421
6.16764
5.88326
5.73652
5.70252
6.18106
6.07848
5.98522
5.90688
5.90944
5.87291
5.82959
5.78249
5.66443
5.64759
5.6232
5.59366
5.44017
5.42995
5.41442
5.39514
5.2229
5.21711
5.2079
5.19586
5.01455
5.01189
5.00678
4.99947
4.81313
4.8127
4.81045
4.80655
4.61624
4.61776
4.6179
4.61676
4.42263
4.4261
4.42844
4.42969
4.23155
4.23705
4.24155
4.24504
4.04256
4.05028
4.05698
4.06267
3.85573
3.86586
3.87485
3.88273
3.67166
3.68432
3.69561
3.70562
3.49145
3.50653
3.51998
3.53194
3.31648
3.33357
3.34881
3.36238
3.14808
3.16648
3.1829
3.19758
2.98702
3.00583
3.02271
3.0379
2.83319
2.85157
2.86821
2.88331
2.68566
2.70299
2.71885
2.7334
2.54306
2.55903
2.5738
2.58751
2.40408
2.41861
2.43219
2.44491
2.26771
2.28086
2.29326
2.30495
2.13328
2.14515
2.15641
2.1671
2.00032
2.01101
2.02121
2.03094
1.86849
1.87811
1.88733
1.89614
1.73754
1.74618
1.75449
1.76245
1.60729
1.61503
1.62249
1.62966
1.47759
1.4845
1.49118
1.4976
1.34833
1.35448
1.36042
1.36614
1.21943
1.22486
1.23011
1.23517
1.09081
1.09556
1.10015
1.10458
0.962399
0.966503
0.970474
0.974305
0.834135
0.837626
0.841002
0.844261
0.705963
0.708866
0.711672
0.714379
0.577826
0.580162
0.582418
0.584595
0.449667
0.451454
0.45318
0.454844
0.321428
0.322684
0.323895
0.325063
0.19305
0.19379
0.194504
0.195191
0.0644467
0.0646881
0.0649202
0.0651433
5.23916
5.63147
5.76407
5.8085
5.82501
5.8292
5.8276
5.82309
5.81744
5.81141
5.80541
5.79971
5.79449
5.78985
5.78589
5.78267
5.78023
5.77859
5.77778
5.36695
5.64231
5.72341
5.73633
5.73248
5.72478
5.71542
5.70577
5.69655
5.68801
5.68022
5.67323
5.66708
5.66178
5.65735
5.6538
5.65114
5.64937
5.64849
5.69021
5.70492
5.69177
5.6641
5.63887
5.61878
5.60187
5.5872
5.5745
5.56349
5.55395
5.54571
5.53865
5.5327
5.52781
5.52393
5.52106
5.51915
5.51821
5.79016
5.69095
5.62621
5.5759
5.53718
5.50785
5.48477
5.46594
5.45031
5.43721
5.42616
5.41682
5.40896
5.40244
5.39714
5.39298
5.38991
5.38789
5.3869
5.69734
5.59549
5.52241
5.46667
5.42302
5.38912
5.36242
5.34089
5.32325
5.30864
5.29646
5.28629
5.27783
5.27087
5.26526
5.26088
5.25766
5.25555
5.25451
5.53676
5.45707
5.39229
5.33958
5.29656
5.26198
5.23415
5.21148
5.19286
5.17744
5.16462
5.15396
5.14513
5.13789
5.13208
5.12757
5.12426
5.1221
5.12103
5.35716
5.29833
5.24519
5.19909
5.15986
5.12715
5.10009
5.07766
5.05901
5.04347
5.03051
5.01971
5.01077
5.00346
4.99759
4.99303
4.9897
4.98752
4.98645
5.1711
5.12884
5.08731
5.04911
5.01519
4.98586
4.96087
4.93971
4.92185
4.90679
4.89414
4.88355
4.87476
4.86756
4.86177
4.85728
4.85399
4.85184
4.85079
4.9837
4.95426
4.9231
4.89278
4.86465
4.83943
4.81731
4.79814
4.78167
4.76759
4.75564
4.74557
4.73716
4.73024
4.72467
4.72034
4.71716
4.71509
4.71407
4.79731
4.77782
4.75547
4.73239
4.70998
4.68914
4.67029
4.65355
4.63888
4.62615
4.61521
4.60589
4.59806
4.59159
4.58635
4.58227
4.57927
4.57731
4.57634
4.61266
4.60113
4.58621
4.5696
4.55258
4.53608
4.52064
4.50656
4.49394
4.48279
4.47308
4.46472
4.45762
4.45172
4.44692
4.44316
4.44039
4.43858
4.43768
4.42994
4.42503
4.41647
4.40558
4.39352
4.38115
4.36909
4.35773
4.34729
4.33787
4.32953
4.32225
4.31601
4.31077
4.30648
4.30311
4.30062
4.29898
4.29817
4.2492
4.25003
4.24699
4.24118
4.2336
4.22509
4.21628
4.20761
4.19936
4.19174
4.18484
4.17872
4.1734
4.16889
4.16517
4.16223
4.16004
4.1586
4.15789
4.07053
4.07649
4.07833
4.07702
4.07349
4.06852
4.06276
4.05665
4.05056
4.04471
4.03927
4.03435
4.03
4.02625
4.02313
4.02064
4.01879
4.01756
4.01695
3.89414
3.90476
3.91092
3.91361
3.91369
3.91194
3.90897
3.90528
3.90123
3.8971
3.8931
3.88935
3.88597
3.883
3.8805
3.87848
3.87696
3.87594
3.87544
3.72039
3.73519
3.74517
3.75137
3.75464
3.75575
3.75532
3.75383
3.75168
3.74918
3.74654
3.74395
3.7415
3.7393
3.7374
3.73585
3.73467
3.73388
3.73348
3.54971
3.56818
3.58142
3.59065
3.59669
3.60031
3.60211
3.6026
3.60219
3.60118
3.59983
3.5983
3.59676
3.59529
3.59398
3.59288
3.59203
3.59145
3.59117
3.3826
3.40403
3.42003
3.43177
3.44014
3.44588
3.44962
3.45185
3.45298
3.45332
3.45313
3.4526
3.45189
3.45111
3.45036
3.44969
3.44915
3.44878
3.44859
3.21952
3.24311
3.26119
3.27491
3.28517
3.29268
3.29808
3.30175
3.30423
3.30576
3.3066
3.30697
3.30703
3.30688
3.30664
3.30637
3.30612
3.30595
3.30586
3.0607
3.08559
3.10509
3.12024
3.13193
3.14084
3.14755
3.1525
3.1561
3.15866
3.16039
3.16155
3.16228
3.1627
3.16292
3.16302
3.16304
3.16304
3.16304
2.90614
2.93151
2.95176
2.96783
2.98052
2.99047
2.99821
3.00416
3.00868
3.01209
3.01461
3.01644
3.01776
3.01868
3.0193
3.01972
3.01998
3.02014
3.02023
2.75559
2.78071
2.80114
2.81766
2.83096
2.84162
2.85011
2.85681
2.86207
2.86616
2.86931
2.87171
2.87352
2.87487
2.87585
2.87655
2.87702
2.87731
2.87749
2.6086
2.63292
2.65308
2.66964
2.68322
2.69428
2.70326
2.7105
2.7163
2.72092
2.72457
2.72742
2.72964
2.73134
2.73262
2.73356
2.73421
2.73461
2.73487
2.46464
2.48782
2.50734
2.52363
2.53719
2.54841
2.55765
2.56523
2.5714
2.5764
2.58042
2.58363
2.58617
2.58815
2.58967
2.5908
2.5916
2.5921
2.5924
2.32323
2.34505
2.36369
2.37946
2.39277
2.40393
2.41324
2.42098
2.42736
2.43261
2.43689
2.44035
2.44313
2.44532
2.44703
2.44831
2.44923
2.44981
2.45014
2.18391
2.20426
2.22186
2.23695
2.24982
2.26074
2.26996
2.27771
2.28418
2.28955
2.29398
2.2976
2.30054
2.30289
2.30473
2.30612
2.30713
2.30777
2.30812
2.04631
2.06515
2.08163
2.0959
2.10821
2.11875
2.12775
2.13537
2.1418
2.14719
2.15168
2.15539
2.15842
2.16086
2.16278
2.16425
2.16532
2.166
2.16636
1.91014
1.92747
1.94278
1.95615
1.96779
1.97785
1.98651
1.99391
2.0002
2.00552
2.00999
2.0137
2.01676
2.01924
2.0212
2.02271
2.02381
2.02452
2.02488
1.77514
1.79099
1.8051
1.81753
1.82843
1.83793
1.84616
1.85325
1.85933
1.86449
1.86886
1.87252
1.87555
1.87802
1.87998
1.8815
1.8826
1.88332
1.88369
1.64111
1.65553
1.66844
1.6799
1.69001
1.69888
1.70662
1.71333
1.71912
1.72407
1.72828
1.73182
1.73477
1.73719
1.73912
1.74062
1.74171
1.74242
1.74277
1.50788
1.52091
1.53264
1.54311
1.55241
1.56061
1.5678
1.57408
1.57952
1.5842
1.5882
1.59158
1.59441
1.59674
1.59861
1.60006
1.60112
1.60181
1.60215
1.37532
1.387
1.39757
1.40705
1.41551
1.42301
1.42963
1.43542
1.44047
1.44484
1.44858
1.45177
1.45444
1.45664
1.45842
1.4598
1.46082
1.46148
1.46179
1.24329
1.25368
1.26312
1.27161
1.27923
1.28601
1.29201
1.2973
1.30192
1.30594
1.30939
1.31234
1.31483
1.31688
1.31854
1.31984
1.32079
1.32141
1.32171
1.11171
1.12085
1.12918
1.1367
1.14347
1.14951
1.15489
1.15964
1.16381
1.16744
1.17058
1.17327
1.17554
1.17743
1.17895
1.18015
1.18102
1.1816
1.18186
0.980477
0.988411
0.995655
1.00222
1.00814
1.01345
1.01819
1.02238
1.02608
1.02931
1.03211
1.03452
1.03655
1.03825
1.03963
1.0407
1.0415
1.04202
1.04225
0.849514
0.856281
0.862469
0.868092
0.873175
0.877747
0.881835
0.885469
0.888678
0.891491
0.893937
0.896041
0.897828
0.899318
0.900531
0.901482
0.902182
0.902644
0.902843
0.718748
0.724383
0.729543
0.734241
0.738498
0.742334
0.745773
0.748838
0.75155
0.753935
0.756012
0.757804
0.759329
0.760603
0.761642
0.762457
0.763058
0.763455
0.76362
0.588109
0.592645
0.596805
0.600597
0.60404
0.607148
0.609941
0.612434
0.614646
0.616594
0.618296
0.619767
0.62102
0.62207
0.622927
0.6236
0.624097
0.624426
0.624555
0.45753
0.461001
0.464185
0.467093
0.469736
0.472128
0.474279
0.476204
0.477914
0.479424
0.480745
0.481889
0.482866
0.483686
0.484355
0.484881
0.485271
0.48553
0.485622
0.326947
0.329383
0.33162
0.333665
0.335527
0.337213
0.338732
0.340094
0.341306
0.342378
0.343318
0.344133
0.34483
0.345415
0.345893
0.34627
0.346549
0.346737
0.346793
0.196298
0.197733
0.19905
0.200256
0.201354
0.202351
0.20325
0.204057
0.204776
0.205413
0.205973
0.206459
0.206875
0.207224
0.20751
0.207736
0.207903
0.208019
0.208042
0.0655023
0.065968
0.0663957
0.0667873
0.0671444
0.0674689
0.0677621
0.0680258
0.0682615
0.0684706
0.0686546
0.0688146
0.0689519
0.0690674
0.0691622
0.069237
0.0692925
0.0693327
0.0693351
)
;

boundaryField
{
    leftWall
    {
        type            calculated;
        value           nonuniform List<scalar> 
50
(
1971.02
1912.32
1853.77
1795.41
1737.25
1679.31
1621.6
1564.14
1474.9
1355.41
1238.24
1123.89
1012.82
905.41
801.931
702.579
607.439
516.153
428.378
345.167
265.522
183.602
106.469
51.4374
12.5673
2.04313
1.95818
1.8974
1.83765
1.7752
1.71334
1.64994
1.58397
1.51457
1.44129
1.36448
1.28429
1.20074
1.11387
1.02388
0.931183
0.836177
0.739225
0.640602
0.540549
0.439312
0.336953
0.233363
0.128979
0.0246255
)
;
    }
    rightWall
    {
        type            calculated;
        value           nonuniform List<scalar> 
50
(
6.28908
6.23009
6.17089
6.11152
6.05195
5.9922
5.93226
5.87212
5.77778
5.64849
5.51821
5.3869
5.25451
5.12103
4.98645
4.85079
4.71407
4.57634
4.43768
4.29817
4.15789
4.01695
3.87544
3.73348
3.59117
3.44859
3.30586
3.16304
3.02023
2.87749
2.73487
2.5924
2.45014
2.30812
2.16636
2.02488
1.88369
1.74277
1.60215
1.46179
1.32171
1.18186
1.04225
0.902843
0.76362
0.624555
0.485622
0.346793
0.208042
0.0693351
)
;
    }
    lowerWall
    {
        type            calculated;
        value           nonuniform List<scalar> 
62
(
2000.45
1996.3
1980.74
1956.01
1922.95
1880.84
1828.84
1766.03
1691.32
1603.62
1500.95
1381.61
1244.98
1088.74
907.494
700.889
488.514
306.404
183.565
124.795
79.4295
70.8628
80.0823
79.796
78.1927
68.3449
46.5854
20.8973
10.4375
7.66435
6.75295
3.58637
4.28299
4.44041
4.71235
6.17707
6.11405
6.0467
5.97458
5.89709
5.81292
5.72091
5.6152
6.2065
6.24663
6.27175
6.29467
6.31274
6.32553
6.33357
6.33778
6.33911
6.33846
6.33649
6.33377
6.33072
6.32765
6.32482
6.32238
6.32047
6.31916
6.31851
)
;
    }
    atmosphere
    {
        type            calculated;
        value           nonuniform List<scalar> 
46
(
-0.0269825
-0.0269515
-0.026223
-0.0251423
-0.0237438
-0.0220696
-0.0201688
-0.0180971
-0.0159147
-0.0136853
-0.0114728
-0.00933899
-0.00734092
-0.00552821
-0.00394104
-0.00260877
-0.00154924
-0.000769065
-0.000264817
-2.54953e-05
0
0
0
0
0
0
0
0
0
0
0
0
0
0
0
0
0
0
0
0
0
0
0
0
0
0
)
;
    }
    defaultFaces
    {
        type            empty;
    }
}


// ************************************************************************* //
