/*--------------------------------*- C++ -*----------------------------------*\
  =========                 |
  \\      /  F ield         | OpenFOAM: The Open Source CFD Toolbox
   \\    /   O peration     | Website:  https://openfoam.org
    \\  /    A nd           | Version:  13
     \\/     M anipulation  |
\*---------------------------------------------------------------------------*/
FoamFile
{
    format      ascii;
    class       volScalarField;
    location    "0.1";
    object      p_rgh;
}
// * * * * * * * * * * * * * * * * * * * * * * * * * * * * * * * * * * * * * //

dimensions      [1 -1 -2 0 0 0 0];

internalField   nonuniform List<scalar> 
2268
(
2000.45
1996.3
1980.74
1956.01
1922.95
1880.84
1828.84
1766.03
1691.32
1603.62
1500.95
1381.61
1244.98
1088.74
907.494
700.889
488.514
306.404
183.565
124.795
79.4295
70.8628
80.0823
2000.6
1996.43
1980.83
1956.1
1923.03
1880.9
1828.85
1765.96
1691.12
1603.23
1500.26
1380.39
1242.91
1085.53
902.965
694.559
479.827
293.942
158.341
87.8722
53.5165
62.2088
79.0515
2000.92
1996.69
1981.02
1956.3
1923.22
1881.03
1828.88
1765.84
1690.75
1602.49
1498.91
1378.03
1238.99
1079.42
893.838
680.805
459.735
256.755
85.0338
20.6946
29.6524
49.4689
69.877
2001.41
1997.09
1981.33
1956.63
1923.53
1881.25
1828.97
1765.71
1690.27
1601.46
1496.98
1374.61
1233.45
1070.81
879.807
656.094
417.088
175.4
30.107
10.5744
13.6396
28.1752
52.7077
2002.11
1997.66
1981.81
1957.12
1923.99
1881.62
1829.18
1765.65
1689.77
1600.3
1494.68
1370.43
1226.59
1059.87
860.246
618.773
315.967
65.2102
10.3025
8.95504
9.34449
13.5599
26.8229
2003.03
1998.44
1982.51
1957.82
1924.67
1882.21
1829.59
1765.75
1689.4
1599.18
1492.26
1365.91
1219.08
1047.3
833.849
552.859
165.881
15.1181
8.70819
8.27807
8.34886
8.83076
13.1171
2004.18
1999.41
1983.39
1958.72
1925.56
1882.99
1830.19
1766.02
1689.16
1598.11
1489.72
1361.14
1211.59
1034.2
801.416
427.119
58.6033
9.81472
8.04006
7.83516
7.83828
7.71707
8.79759
2005.58
2000.55
1984.47
1959.83
1926.63
1883.96
1830.97
1766.44
1689.04
1597.07
1487.03
1356.11
1204.19
1020.05
764.685
278.483
18.3625
8.22905
7.62693
7.53921
7.51018
7.24253
7.43469
6.2065
6.24663
6.27175
6.29467
6.31274
6.32553
6.33357
6.33778
6.33911
6.33846
6.33649
6.33377
6.33072
6.32765
6.32482
6.32238
6.32047
6.31916
6.31851
6.20234
6.24539
6.27156
6.29529
6.31361
6.32635
6.3342
6.33825
6.33944
6.33867
6.33661
6.33381
6.33071
6.32759
6.32473
6.32227
6.32035
6.31902
6.31837
6.19385
6.24268
6.27126
6.29663
6.31542
6.32806
6.33561
6.33927
6.34013
6.33908
6.3368
6.33384
6.33062
6.32742
6.3245
6.32199
6.32004
6.3187
6.31804
6.18059
6.23794
6.27108
6.2989
6.31826
6.33067
6.33771
6.34079
6.34114
6.33967
6.33707
6.33387
6.33047
6.32715
6.32413
6.32156
6.31957
6.3182
6.31752
6.16196
6.23013
6.27149
6.30232
6.32225
6.33423
6.3405
6.34278
6.34243
6.34042
6.3374
6.33388
6.33025
6.32676
6.32362
6.32096
6.31891
6.31751
6.31682
6.13665
6.22212
6.27357
6.30719
6.32752
6.33878
6.34397
6.34521
6.34399
6.34129
6.33776
6.33386
6.32994
6.32624
6.32296
6.3202
6.31808
6.31664
6.31592
6.10349
6.21566
6.27768
6.31381
6.33419
6.34432
6.3481
6.34803
6.34577
6.34226
6.33812
6.33377
6.32953
6.3256
6.32215
6.31927
6.31707
6.31558
6.31484
6.05665
6.20369
6.28228
6.32239
6.34244
6.35084
6.35282
6.35119
6.34771
6.34328
6.33845
6.33361
6.329
6.32481
6.32117
6.31816
6.31587
6.31433
6.31356
2008.37
2002.83
1986.75
1962.15
1928.93
1886.14
1832.88
1767.85
1689.63
1596.28
1483.73
1349.54
1193.95
993.716
657.356
122.718
9.66837
7.40277
7.32841
7.28712
7.19401
6.90393
6.27654
2014.07
2008
1991.92
1967.51
1934.42
1891.68
1838.35
1773.02
1694.22
1599.64
1484.65
1348.33
1189.23
964.06
408.833
19.4321
7.392
7.07051
7.0734
7.07533
7.01438
6.88028
6.83936
2022.09
2015.53
1999.55
1975.48
1942.74
1900.36
1847.38
1782.32
1703.73
1608.94
1493.2
1357.92
1195.27
921.284
189.571
8.56012
6.87333
6.8773
6.92054
6.95736
6.97588
6.98689
7.26199
2032.94
2025.97
2010.25
1986.74
1954.65
1913.04
1860.99
1796.97
1719.67
1626.1
1512.02
1381.07
1214.54
769.387
72.6507
7.24336
6.81228
6.77406
6.82153
6.88056
6.93879
6.9915
7.16916
2047.07
2039.81
2024.55
2001.82
1970.71
1930.37
1879.9
1817.8
1742.96
1652.15
1542.4
1418.46
1250.28
585.401
18.5634
6.63406
6.70074
6.68749
6.7438
6.80449
6.85899
6.90313
6.97023
2064.85
2057.44
2042.85
2021.15
1991.4
1952.83
1904.61
1845.32
1774.08
1687.52
1584.39
1468.74
1304.29
399.327
7.82546
6.71242
6.61089
6.61916
6.67333
6.72406
6.76693
6.80216
6.83369
2086.56
2079.14
2065.42
2045
2016.97
1980.68
1935.35
1879.7
1813.08
1732.04
1637.08
1529.46
1288.6
263.918
7.41392
6.74104
6.53366
6.55874
6.60566
6.64635
6.6817
6.71078
6.73037
2112.41
2105.11
2092.45
2073.54
2047.59
2014.04
1972.19
1920.93
1859.79
1785.37
1699.81
1600.83
1243.32
161.941
6.54976
6.57839
6.44551
6.50122
6.53874
6.57133
6.60049
6.62324
6.6359
2142.46
2135.42
2123.98
2106.8
2083.24
2052.83
2014.97
1968.71
1913.74
1846.81
1771.43
1681.59
1169.35
86.3241
6.47128
6.47084
6.38565
6.44519
6.47218
6.49792
6.52144
6.53969
6.54992
2176.37
2169.69
2159.6
2144.32
2123.39
2096.44
2062.94
2022.13
1973.8
1914.98
1850.27
1770.07
1051.45
36.6264
6.7661
6.41706
6.35483
6.38747
6.40618
6.42603
6.44519
6.46106
6.47128
2213.79
2207.6
2198.97
2185.75
2167.66
2144.43
2115.63
2080.64
2039.35
1989.09
1935.22
1864.55
864.067
11.2729
6.64991
6.33908
6.32009
6.32902
6.33938
6.35435
6.37078
6.38589
6.39724
2255.77
2250.19
2243.14
2232.08
2217.02
2197.73
2173.89
2145.01
2110.99
2069.56
2026.16
1964.33
627.49
6.492
6.435
6.29089
6.2738
6.26491
6.26857
6.28071
6.2965
6.31257
6.32621
2301.28
2296.27
2290.75
2281.78
2269.65
2254.17
2235.08
2212.01
2184.82
2151.64
2117.44
2066.54
461.548
6.65943
6.38212
6.25113
6.21267
6.1909
6.19062
6.20301
6.22093
6.24004
6.2573
2344.33
2339.71
2335.7
2328.77
2319.51
2307.79
2293.52
2276.5
2256.54
2232
2206.22
2171.99
430.959
7.21058
6.39429
6.19169
6.11957
6.09731
6.10087
6.11901
6.14299
6.16763
6.18999
2390.53
2386.46
2384.28
2379.82
2374.03
2366.86
2358.46
2349.04
2338.75
2322.26
2282.41
2080.98
527.458
24.8572
6.30253
6.03659
5.96957
5.97545
5.9952
6.02736
6.06238
6.09537
6.12433
2142.76
2119.31
2098.78
2061.54
2008.89
1940.54
1852.5
1744.28
1618.26
1391.2
1122.13
577.11
476.563
82.7557
6.2538
5.72013
5.73388
5.81602
5.87151
5.92904
5.98032
6.02429
6.06107
439.339
416.055
393.19
357.079
311.039
258.049
201.132
142.172
86.9435
11.2365
3.96545
3.64602
3.82025
90.9977
17.3532
5.04573
5.40506
5.61667
5.73445
5.82861
5.90032
5.9568
6.00175
4.70491
4.70302
4.69126
4.67436
4.6477
4.60915
4.5515
4.46208
4.33132
4.1843
4.0001
3.65568
3.33154
15.9532
18.0072
4.45741
5.05445
5.41422
5.60803
5.7384
5.82892
5.89647
5.94836
4.74515
4.74204
4.73236
4.7178
4.69577
4.66437
4.61956
4.55625
4.47317
4.36814
4.16276
3.79141
3.37076
2.90602
13.3127
4.38535
4.92383
5.30889
5.52779
5.6731
5.7733
5.84696
5.90289
4.80956
4.80681
4.79955
4.78839
4.77216
4.74973
4.71959
4.68031
4.63139
4.56473
4.41886
4.11163
3.82734
6.15156
7.16985
4.57972
4.9988
5.31269
5.50436
5.63992
5.73728
5.8103
5.86649
4.87501
4.8727
4.86814
4.86084
4.85053
4.83704
4.8204
4.80026
4.77772
4.75143
4.68908
4.57559
4.4126
4.26159
4.49404
4.90536
5.17367
5.37949
5.5222
5.63349
5.7189
5.78583
5.83893
4.93775
4.93651
4.93433
4.93076
4.92601
4.92058
4.91485
4.90909
4.90576
4.90645
4.89703
4.85415
4.80347
4.84822
5.0082
5.19332
5.33008
5.45455
5.55554
5.64149
5.71228
5.77067
5.81876
5.00108
5.00112
5.00085
5.00049
5.00048
5.00144
5.0039
5.00862
5.01788
5.03238
5.04524
5.05128
5.06846
5.13107
5.23691
5.34048
5.42573
5.51061
5.58581
5.65302
5.71128
5.76135
5.80398
5.06288
5.06373
5.06503
5.06723
5.07083
5.07635
5.08434
5.09562
5.11172
5.13277
5.15596
5.18094
5.21629
5.27031
5.33807
5.41174
5.48128
5.54818
5.60854
5.66333
5.71218
5.75526
5.79284
5.12211
5.1233
5.12581
5.1299
5.13595
5.14445
5.15587
5.17094
5.19052
5.21449
5.24187
5.2736
5.31316
5.36146
5.41443
5.46864
5.52314
5.57642
5.62612
5.67196
5.7136
5.75096
5.78414
5.1779
5.17939
5.18278
5.18815
5.19576
5.20602
5.21932
5.23619
5.25706
5.28184
5.31015
5.34237
5.37953
5.42145
5.46603
5.51118
5.55572
5.59922
5.64062
5.67942
5.71521
5.74778
5.77714
5.22982
5.23165
5.23561
5.24172
5.25018
5.26131
5.27541
5.2928
5.31365
5.33789
5.36538
5.39613
5.43009
5.46665
5.50461
5.54283
5.58067
5.61743
5.65261
5.68585
5.71685
5.74538
5.7714
5.2782
5.28028
5.28449
5.2909
5.29969
5.31108
5.32524
5.34235
5.36246
5.38547
5.41121
5.43949
5.47
5.50212
5.53504
5.568
5.60052
5.63213
5.66249
5.69131
5.71837
5.74348
5.76658
5.32321
5.32537
5.32958
5.336
5.34475
5.35594
5.36968
5.38603
5.40496
5.42634
5.44997
5.47559
5.50281
5.53109
5.55986
5.58858
5.61685
5.64435
5.6708
5.69599
5.71975
5.74192
5.76247
5.36485
5.36693
5.37103
5.37726
5.38572
5.39644
5.40947
5.42478
5.44231
5.4619
5.48334
5.50635
5.53054
5.5555
5.58077
5.60595
5.6307
5.65476
5.67794
5.70007
5.721
5.74062
5.75889
5.40317
5.4051
5.40901
5.41496
5.42297
5.43306
5.44521
5.45936
5.47541
5.4932
5.51251
5.53306
5.55454
5.57658
5.59882
5.62096
5.64271
5.66385
5.68422
5.70369
5.72216
5.73952
5.75574
5.43838
5.44016
5.44384
5.44944
5.45694
5.46631
5.47751
5.49045
5.50503
5.52106
5.53836
5.55667
5.5757
5.59516
5.61476
5.63423
5.65335
5.67193
5.68984
5.70697
5.72325
5.73857
5.75294
5.47088
5.4725
5.47594
5.48115
5.48808
5.49669
5.50691
5.51865
5.5318
5.54617
5.5616
5.57785
5.59468
5.61183
5.62907
5.64617
5.66295
5.67925
5.69496
5.70999
5.72428
5.73775
5.7504
5.50106
5.50256
5.50573
5.51052
5.51684
5.52467
5.53392
5.54449
5.55626
5.56908
5.58276
5.59712
5.61194
5.62701
5.64211
5.65707
5.67174
5.68598
5.69969
5.71279
5.72525
5.73701
5.74806
5.52931
5.53068
5.53357
5.5379
5.54362
5.55066
5.55895
5.56839
5.57885
5.59019
5.60226
5.61487
5.62784
5.64099
5.65415
5.66715
5.67988
5.69221
5.70407
5.7154
5.72616
5.73632
5.74588
5.55588
5.55713
5.55972
5.56361
5.56871
5.57498
5.58233
5.59067
5.59989
5.60984
5.62039
5.63137
5.64263
5.65401
5.66536
5.67655
5.68747
5.69803
5.70817
5.71784
5.72701
5.73566
5.74379
5.58102
5.58214
5.58444
5.58787
5.59237
5.59788
5.60432
5.61161
5.61964
5.62827
5.63738
5.64684
5.6565
5.66622
5.67588
5.68537
5.69461
5.7035
5.71202
5.7201
5.72777
5.73498
5.74176
5.60498
5.60597
5.60797
5.61094
5.61485
5.61961
5.62518
5.63145
5.63832
5.6457
5.65345
5.66145
5.66959
5.67775
5.68581
5.6937
5.70133
5.70865
5.71563
5.72223
5.72843
5.73426
5.73973
5.62781
5.62866
5.63038
5.63291
5.63624
5.64029
5.64501
5.6503
5.65609
5.66225
5.66871
5.67533
5.68203
5.68869
5.69524
5.7016
5.7077
5.7135
5.71898
5.72413
5.72895
5.73344
5.73764
5.64942
5.65012
5.65155
5.65368
5.65646
5.65985
5.66377
5.66815
5.67291
5.67795
5.68318
5.68851
5.69384
5.6991
5.7042
5.70909
5.71372
5.71807
5.72211
5.72584
5.72929
5.73248
5.73545
5.67023
5.67076
5.67192
5.67364
5.67589
5.67863
5.68178
5.68527
5.68904
5.69299
5.69705
5.70113
5.70515
5.70905
5.71276
5.71623
5.71944
5.72236
5.72498
5.72733
5.72943
5.73134
5.7331
5.69107
5.69137
5.69223
5.69353
5.69524
5.69729
5.69964
5.70222
5.70497
5.70781
5.71067
5.71349
5.71619
5.71872
5.72104
5.7231
5.72489
5.72639
5.7276
5.72855
5.72929
5.72992
5.7305
4.13958
4.75909
4.91134
5.18327
5.94025
5.47593
5.40245
5.60296
6.96385
6.69509
6.5305
6.48658
7.09034
6.98839
6.89662
6.81693
6.94371
6.9072
6.86387
6.81682
6.82388
6.80703
6.78264
6.7531
6.7248
6.71459
6.69906
6.67978
6.63273
6.62694
6.61773
6.60569
6.54957
6.54692
6.5418
6.5345
6.47335
6.47292
6.47067
6.46677
6.40165
6.40317
6.40332
6.40217
6.33324
6.3367
6.33905
6.3403
6.26735
6.27286
6.27735
6.28084
6.20356
6.21128
6.21798
6.22367
6.14192
6.15205
6.16104
6.16892
6.08305
6.0957
6.107
6.11701
6.02803
6.04311
6.05656
6.06852
5.97825
5.99535
6.01058
6.02416
5.93505
5.95345
5.96987
5.98455
5.89918
5.918
5.93488
5.95007
5.87055
5.88893
5.90556
5.92067
5.84822
5.86554
5.8814
5.89595
5.83081
5.84678
5.86155
5.87525
5.81702
5.83155
5.84513
5.85785
5.80584
5.81899
5.83139
5.84309
5.79661
5.80848
5.81974
5.83043
5.78884
5.79953
5.80974
5.81946
5.78221
5.79183
5.80104
5.80986
5.77645
5.78509
5.7934
5.80137
5.77139
5.77914
5.7866
5.79377
5.76689
5.7738
5.78048
5.7869
5.76283
5.76898
5.77492
5.78064
5.75913
5.76455
5.7698
5.77486
5.7557
5.76045
5.76504
5.76947
5.75248
5.75658
5.76055
5.76439
5.74941
5.7529
5.75628
5.75954
5.74643
5.74934
5.75214
5.75485
5.74349
5.74583
5.74808
5.75026
5.74053
5.74231
5.74404
5.7457
5.73748
5.73874
5.73995
5.74112
5.7343
5.73504
5.73575
5.73644
5.73089
5.73113
5.73136
5.73159
5.77264
6.16494
6.29753
6.34197
6.35847
6.36266
6.36107
6.35655
6.3509
6.34488
6.33888
6.33318
6.32795
6.32332
6.31936
6.31613
6.31369
6.31206
6.31124
6.02563
6.30097
6.38207
6.39499
6.39114
6.38344
6.37409
6.36443
6.35521
6.34667
6.33888
6.3319
6.32574
6.32044
6.31601
6.31246
6.3098
6.30803
6.30715
6.47408
6.48878
6.47562
6.44796
6.42273
6.40264
6.38572
6.37105
6.35835
6.34735
6.33781
6.32956
6.32251
6.31656
6.31166
6.30779
6.30491
6.30301
6.30207
6.69922
6.6
6.53526
6.48495
6.44623
6.4169
6.39382
6.37499
6.35936
6.34626
6.33521
6.32587
6.31801
6.31149
6.30619
6.30203
6.29896
6.29694
6.29595
6.73159
6.62973
6.55665
6.50092
6.45726
6.42337
6.39667
6.37514
6.35749
6.34289
6.33071
6.32054
6.31208
6.30512
6.2995
6.29512
6.29191
6.2898
6.28876
6.6962
6.61651
6.55173
6.49902
6.456
6.42142
6.39359
6.37092
6.3523
6.33688
6.32406
6.3134
6.30457
6.29733
6.29152
6.28701
6.2837
6.28154
6.28047
6.6418
6.58296
6.52982
6.48372
6.44449
6.41179
6.38472
6.36229
6.34365
6.32811
6.31514
6.30435
6.29541
6.28809
6.28222
6.27767
6.27434
6.27216
6.27109
6.58093
6.53867
6.49713
6.45894
6.42502
6.39569
6.37069
6.34954
6.33167
6.31662
6.30397
6.29338
6.28459
6.27738
6.2716
6.26711
6.26382
6.26167
6.26061
6.51873
6.48929
6.45812
6.4278
6.39967
6.37446
6.35233
6.33316
6.31669
6.30262
6.29067
6.28059
6.27218
6.26526
6.25969
6.25536
6.25219
6.25011
6.24909
6.45753
6.43804
6.41569
6.39261
6.3702
6.34936
6.33051
6.31377
6.2991
6.28637
6.27542
6.26611
6.25828
6.2518
6.24657
6.24249
6.23949
6.23753
6.23656
6.39808
6.38655
6.37163
6.35501
6.338
6.32149
6.30606
6.29197
6.27935
6.2682
6.25849
6.25013
6.24304
6.23713
6.23233
6.22857
6.2258
6.22399
6.22309
6.34055
6.33564
6.32708
6.31619
6.30412
6.29176
6.2797
6.26834
6.25789
6.24848
6.24014
6.23286
6.22662
6.22138
6.21709
6.21372
6.21122
6.20958
6.20877
6.285
6.28583
6.28279
6.27698
6.2694
6.2609
6.25208
6.24341
6.23516
6.22754
6.22064
6.21452
6.20921
6.2047
6.20098
6.19803
6.19585
6.1944
6.19369
6.23152
6.23749
6.23933
6.23801
6.23448
6.22952
6.22375
6.21765
6.21155
6.20571
6.20027
6.19534
6.19099
6.18725
6.18413
6.18164
6.17978
6.17855
6.17794
6.18033
6.19095
6.19711
6.1998
6.19988
6.19813
6.19516
6.19147
6.18742
6.18329
6.17929
6.17555
6.17216
6.16919
6.16669
6.16467
6.16315
6.16214
6.16163
6.13177
6.14657
6.15656
6.16275
6.16603
6.16714
6.1667
6.16521
6.16307
6.16056
6.15793
6.15533
6.15289
6.15069
6.14879
6.14723
6.14605
6.14526
6.14487
6.08629
6.10476
6.118
6.12723
6.13327
6.13689
6.13869
6.13918
6.13877
6.13776
6.13641
6.13488
6.13334
6.13187
6.13056
6.12946
6.12861
6.12803
6.12775
6.04437
6.0658
6.0818
6.09354
6.10191
6.10766
6.1114
6.11362
6.11475
6.11509
6.1149
6.11437
6.11366
6.11289
6.11213
6.11146
6.11092
6.11055
6.11037
6.00649
6.03008
6.04816
6.06188
6.07214
6.07965
6.08504
6.08872
6.0912
6.09273
6.09357
6.09394
6.09399
6.09385
6.09361
6.09334
6.09309
6.09292
6.09283
5.97286
5.99776
6.01725
6.03241
6.04409
6.053
6.05971
6.06466
6.06826
6.07082
6.07256
6.07372
6.07444
6.07487
6.07509
6.07518
6.07521
6.07521
6.07521
5.9435
5.96886
5.98912
6.00519
6.01788
6.02783
6.03557
6.04152
6.04604
6.04945
6.05197
6.0538
6.05511
6.05603
6.05666
6.05708
6.05734
6.0575
6.05759
5.91814
5.94326
5.96369
5.98021
5.99352
6.00417
6.01266
6.01936
6.02462
6.02871
6.03186
6.03426
6.03607
6.03742
6.0384
6.0391
6.03957
6.03986
6.04004
5.89634
5.92067
5.94082
5.95739
5.97096
5.98203
5.99101
5.99824
6.00405
6.00866
6.01231
6.01517
6.01739
6.01909
6.02037
6.0213
6.02196
6.02236
6.02261
5.87759
5.90076
5.92028
5.93657
5.95013
5.96135
5.97059
5.97817
5.98434
5.98934
5.99336
5.99657
5.99911
6.00109
6.00261
6.00374
6.00454
6.00504
6.00534
5.86136
5.88318
5.90182
5.9176
5.9309
5.94206
5.95138
5.95911
5.9655
5.97074
5.97502
5.97849
5.98126
5.98346
5.98516
5.98645
5.98737
5.98795
5.98828
5.84724
5.86759
5.88519
5.90028
5.91315
5.92407
5.93329
5.94104
5.94751
5.95288
5.95731
5.96093
5.96387
5.96622
5.96806
5.96946
5.97046
5.9711
5.97145
5.83484
5.85368
5.87016
5.88443
5.89673
5.90728
5.91627
5.9239
5.93033
5.93572
5.94021
5.94391
5.94694
5.94938
5.95131
5.95278
5.95384
5.95453
5.95489
5.82386
5.84119
5.85649
5.86987
5.88151
5.89157
5.90023
5.90763
5.91392
5.91924
5.92371
5.92742
5.93048
5.93295
5.93492
5.93643
5.93753
5.93823
5.9386
5.81405
5.82991
5.84402
5.85645
5.86735
5.87684
5.88507
5.89217
5.89824
5.90341
5.90778
5.91143
5.91446
5.91693
5.9189
5.92041
5.92152
5.92224
5.9226
5.80522
5.81964
5.83255
5.84401
5.85412
5.86299
5.87073
5.87744
5.88322
5.88818
5.89239
5.89593
5.89888
5.9013
5.90323
5.90473
5.90582
5.90653
5.90688
5.79719
5.81021
5.82194
5.83241
5.84171
5.84991
5.85711
5.86338
5.86882
5.8735
5.8775
5.88088
5.88371
5.88604
5.88791
5.88936
5.89042
5.89111
5.89145
5.78981
5.8015
5.81207
5.82155
5.83001
5.83751
5.84412
5.84992
5.85497
5.85933
5.86308
5.86626
5.86894
5.87114
5.87292
5.8743
5.87531
5.87598
5.87629
5.78298
5.79337
5.80281
5.81131
5.81892
5.8257
5.8317
5.83699
5.84161
5.84563
5.84909
5.85203
5.85452
5.85657
5.85824
5.85953
5.86048
5.86111
5.8614
5.7766
5.78574
5.79406
5.80159
5.80835
5.8144
5.81978
5.82453
5.8287
5.83233
5.83547
5.83816
5.84043
5.84231
5.84384
5.84503
5.84591
5.84649
5.84675
5.77056
5.77849
5.78574
5.7923
5.79822
5.80353
5.80827
5.81246
5.81616
5.81939
5.82219
5.8246
5.82663
5.82833
5.82971
5.83078
5.83158
5.8321
5.83233
5.76479
5.77156
5.77774
5.78337
5.78845
5.79302
5.79711
5.80074
5.80395
5.80677
5.80921
5.81132
5.8131
5.81459
5.81581
5.81676
5.81746
5.81792
5.81812
5.75922
5.76485
5.77001
5.77471
5.77897
5.7828
5.78624
5.78931
5.79202
5.7944
5.79648
5.79827
5.7998
5.80107
5.80211
5.80293
5.80353
5.80393
5.80409
5.75377
5.75831
5.76247
5.76626
5.7697
5.77281
5.77561
5.7781
5.78031
5.78226
5.78396
5.78543
5.78668
5.78773
5.78859
5.78926
5.78976
5.79009
5.79022
5.74839
5.75186
5.75504
5.75795
5.7606
5.76299
5.76514
5.76706
5.76877
5.77028
5.7716
5.77275
5.77373
5.77454
5.77521
5.77574
5.77613
5.77639
5.77648
5.743
5.74544
5.74767
5.74972
5.75158
5.75327
5.75479
5.75615
5.75736
5.75843
5.75937
5.76019
5.76088
5.76147
5.76195
5.76232
5.7626
5.76279
5.76285
5.73755
5.73898
5.7403
5.7415
5.7426
5.7436
5.7445
5.7453
5.74602
5.74666
5.74722
5.74771
5.74812
5.74847
5.74876
5.74898
5.74915
5.74927
5.74929
5.73195
5.73241
5.73284
5.73323
5.73359
5.73391
5.7342
5.73447
5.7347
5.73491
5.7351
5.73526
5.73539
5.73551
5.7356
5.73568
5.73574
5.73578
5.73578
)
;

boundaryField
{
    leftWall
    {
        type            fixedFluxPressure;
        gradient        uniform 0;
        value           nonuniform List<scalar> 
50
(
2000.45
2000.6
2000.92
2001.41
2002.11
2003.03
2004.18
2005.58
2008.37
2014.07
2022.09
2032.94
2047.07
2064.85
2086.56
2112.41
2142.46
2176.37
2213.79
2255.77
2301.28
2344.33
2390.53
2142.76
439.339
4.70491
4.74515
4.80956
4.87501
4.93775
5.00108
5.06288
5.12211
5.1779
5.22982
5.2782
5.32321
5.36485
5.40317
5.43838
5.47088
5.50106
5.52931
5.55588
5.58102
5.60498
5.62781
5.64942
5.67023
5.69107
)
;
    }
    rightWall
    {
        type            fixedFluxPressure;
        gradient        uniform 0;
        value           nonuniform List<scalar> 
50
(
6.31851
6.31837
6.31804
6.31752
6.31682
6.31592
6.31484
6.31356
6.31124
6.30715
6.30207
6.29595
6.28876
6.28047
6.27109
6.26061
6.24909
6.23656
6.22309
6.20877
6.19369
6.17794
6.16163
6.14487
6.12775
6.11037
6.09283
6.07521
6.05759
6.04004
6.02261
6.00534
5.98828
5.97145
5.95489
5.9386
5.9226
5.90688
5.89145
5.87629
5.8614
5.84675
5.83233
5.81812
5.80409
5.79022
5.77648
5.76285
5.74929
5.73578
)
;
    }
    lowerWall
    {
        type            fixedFluxPressure;
        gradient        uniform 0;
        value           nonuniform List<scalar> 
62
(
2000.45
1996.3
1980.74
1956.01
1922.95
1880.84
1828.84
1766.03
1691.32
1603.62
1500.95
1381.61
1244.98
1088.74
907.494
700.889
488.514
306.404
183.565
124.795
79.4295
70.8628
80.0823
80.0823
79.0515
69.877
52.7077
26.8229
13.1171
8.79759
7.43469
4.13958
4.75909
4.91134
5.18327
6.2065
6.20234
6.19385
6.18059
6.16196
6.13665
6.10349
6.05665
6.2065
6.24663
6.27175
6.29467
6.31274
6.32553
6.33357
6.33778
6.33911
6.33846
6.33649
6.33377
6.33072
6.32765
6.32482
6.32238
6.32047
6.31916
6.31851
)
;
    }
    atmosphere
    {
        type            prghTotalPressure;
        rho             rho;
        psi             none;
        gamma           1;
        p0              uniform 0;
        value           nonuniform List<scalar> 
46
(
5.70206
5.70209
5.70282
5.7039
5.7053
5.70697
5.70887
5.71094
5.71313
5.71535
5.71757
5.7197
5.7217
5.72351
5.7251
5.72643
5.72749
5.72827
5.72878
5.72901
5.72904
5.72904
5.72904
5.72904
5.72904
5.72904
5.72904
5.72904
5.72904
5.72904
5.72904
5.72904
5.72904
5.72904
5.72904
5.72904
5.72904
5.72904
5.72904
5.72904
5.72904
5.72904
5.72904
5.72904
5.72904
5.72904
)
;
        rho             rho;
    }
    defaultFaces
    {
        type            empty;
    }
}


// ************************************************************************* //
