/*--------------------------------*- C++ -*----------------------------------*\
  =========                 |
  \\      /  F ield         | OpenFOAM: The Open Source CFD Toolbox
   \\    /   O peration     | Website:  https://openfoam.org
    \\  /    A nd           | Version:  13
     \\/     M anipulation  |
\*---------------------------------------------------------------------------*/
FoamFile
{
    format      ascii;
    class       surfaceScalarField;
    location    "0.1";
    object      phi;
}
// * * * * * * * * * * * * * * * * * * * * * * * * * * * * * * * * * * * * * //

dimensions      [0 3 -1 0 0 0 0];

internalField   nonuniform List<scalar> 
4432
(
4.74041e-06
-4.74041e-06
1.05493e-05
-5.80894e-06
1.61633e-05
-5.61391e-06
2.1781e-05
-5.61773e-06
2.75907e-05
-5.80976e-06
3.36779e-05
-6.08715e-06
4.01118e-05
-6.43389e-06
4.6955e-05
-6.84322e-06
5.4317e-05
-7.362e-06
6.22638e-05
-7.94677e-06
7.08896e-05
-8.62587e-06
8.03053e-05
-9.41565e-06
9.07901e-05
-1.04848e-05
0.000102632
-1.18419e-05
0.000115047
-1.24153e-05
0.000125653
-1.06056e-05
0.000132579
-6.92649e-06
0.000137219
-4.63983e-06
0.000142615
-5.39584e-06
0.000145858
-3.24264e-06
0.000123466
2.23918e-05
5.86424e-05
6.48237e-05
5.86423e-05
4.75693e-06
-9.49733e-06
1.05514e-05
-1.16035e-05
1.61662e-05
-1.12286e-05
2.17857e-05
-1.12373e-05
2.75929e-05
-1.16169e-05
3.36751e-05
-1.21694e-05
4.00996e-05
-1.28583e-05
4.69363e-05
-1.368e-05
5.42786e-05
-1.47043e-05
6.21991e-05
-1.58673e-05
7.08352e-05
-1.7262e-05
8.02767e-05
-1.88571e-05
9.06204e-05
-2.08286e-05
0.000102128
-2.33497e-05
0.000114491
-2.47785e-05
0.000126399
-2.25136e-05
0.000136548
-1.7075e-05
0.000144543
-1.26347e-05
0.000151463
-1.23165e-05
0.00015902
-1.0799e-05
0.000153089
2.83229e-05
0.00010686
0.000111053
0.000165502
4.75347e-06
-1.42508e-05
1.05096e-05
-1.73596e-05
1.6094e-05
-1.6813e-05
2.16874e-05
-1.68308e-05
2.74651e-05
-1.73946e-05
3.35138e-05
-1.82181e-05
3.9899e-05
-1.92435e-05
4.66939e-05
-2.04749e-05
5.39841e-05
-2.19945e-05
6.18473e-05
-2.37305e-05
7.04461e-05
-2.58608e-05
7.98627e-05
-2.82736e-05
9.0131e-05
-3.10969e-05
0.00010151
-3.47289e-05
0.000113983
-3.72511e-05
0.000127043
-3.55736e-05
0.000140584
-3.06162e-05
0.00015376
-2.58103e-05
0.000159702
-1.8259e-05
0.000155553
-6.64976e-06
0.000147818
3.6058e-05
0.000116332
0.000142539
0.000281834
4.74336e-06
-1.89942e-05
1.04485e-05
-2.30647e-05
1.59873e-05
-2.23518e-05
2.15408e-05
-2.23843e-05
2.72757e-05
-2.31295e-05
3.32761e-05
-2.42185e-05
3.96057e-05
-2.55731e-05
4.6339e-05
-2.72081e-05
5.35581e-05
-2.92137e-05
6.13457e-05
-3.15181e-05
6.98745e-05
-3.43895e-05
7.92175e-05
-3.76167e-05
8.94199e-05
-4.12993e-05
0.000100826
-4.61353e-05
0.000113719
-5.0144e-05
0.000128183
-5.00371e-05
0.000143788
-4.62211e-05
0.000157756
-3.9779e-05
0.000161653
-2.21559e-05
0.000149465
5.53883e-06
0.00012961
5.59122e-05
0.000106299
0.00016585
0.000388133
4.72628e-06
-2.37204e-05
1.03673e-05
-2.87057e-05
1.58465e-05
-2.7831e-05
2.13467e-05
-2.78845e-05
2.70256e-05
-2.88084e-05
3.29638e-05
-3.01566e-05
3.92225e-05
-3.18319e-05
4.58775e-05
-3.38631e-05
5.30063e-05
-3.63425e-05
6.0699e-05
-3.92108e-05
6.91389e-05
-4.28295e-05
7.83841e-05
-4.68618e-05
8.85042e-05
-5.14195e-05
9.99482e-05
-5.75792e-05
0.000113479
-6.36748e-05
0.000129838
-6.63959e-05
0.000147922
-6.43056e-05
0.00015703
-4.8887e-05
0.000146927
-1.20526e-05
0.000128807
2.36589e-05
0.000104146
8.05731e-05
8.23449e-05
0.000187651
0.000470478
4.70396e-06
-2.84244e-05
1.02688e-05
-3.42706e-05
1.56765e-05
-3.32387e-05
2.1113e-05
-3.3321e-05
2.67262e-05
-3.44216e-05
3.25922e-05
-3.60226e-05
3.87702e-05
-3.80099e-05
4.53371e-05
-4.043e-05
5.23661e-05
-4.33715e-05
5.9952e-05
-4.67967e-05
6.82912e-05
-5.11686e-05
7.74383e-05
-5.6009e-05
8.74666e-05
-6.14477e-05
9.88786e-05
-6.89913e-05
0.000113053
-7.78493e-05
0.000131049
-8.43922e-05
0.000151164
-8.44204e-05
0.000143561
-4.12837e-05
0.000123503
8.00534e-06
0.000100548
4.66139e-05
7.99461e-05
0.000101175
5.57678e-05
0.000211829
0.000526246
4.68205e-06
-3.31064e-05
1.01563e-05
-3.97448e-05
1.5482e-05
-3.85645e-05
2.08473e-05
-3.86863e-05
2.63884e-05
-3.99626e-05
3.2175e-05
-4.18093e-05
3.82653e-05
-4.41001e-05
4.47345e-05
-4.68992e-05
5.16553e-05
-5.02924e-05
5.91244e-05
-5.42658e-05
6.73358e-05
-5.938e-05
7.6332e-05
-6.50051e-05
8.61899e-05
-7.13057e-05
9.74889e-05
-8.02903e-05
0.000112012
-9.23723e-05
0.000130699
-0.000103079
0.000141169
-9.48906e-05
0.000127351
-2.7466e-05
0.000103038
3.23194e-05
7.83995e-05
7.12522e-05
5.84612e-05
0.000121114
4.00717e-05
0.000230218
0.000566318
4.66073e-06
-3.77672e-05
1.00228e-05
-4.51069e-05
1.52567e-05
-4.37984e-05
2.05408e-05
-4.39704e-05
2.59978e-05
-4.54196e-05
3.1691e-05
-4.75025e-05
3.76758e-05
-5.00849e-05
4.40256e-05
-5.3249e-05
5.0807e-05
-5.70738e-05
5.81256e-05
-6.15844e-05
6.61584e-05
-6.74128e-05
7.48906e-05
-7.37373e-05
8.44174e-05
-8.08324e-05
9.55304e-05
-9.14033e-05
0.000109938
-0.00010678
0.00012883
-0.000121971
0.000128276
-9.4337e-05
0.000110811
-1.00012e-05
8.5693e-05
5.74373e-05
5.96402e-05
9.73051e-05
3.87135e-05
0.000142041
2.53637e-05
0.000243568
0.000591681
9.2985e-07
-9.2985e-07
4.62285e-06
-3.69308e-06
7.89715e-06
-3.27428e-06
1.01052e-05
-2.20804e-06
1.13048e-05
-1.19961e-06
1.17168e-05
-4.11858e-07
1.15701e-05
1.46603e-07
1.10622e-05
5.07981e-07
1.03261e-05
7.3615e-07
9.44457e-06
8.81588e-07
8.47332e-06
9.71251e-07
7.44931e-06
1.02402e-06
6.39699e-06
1.05247e-06
5.3307e-06
1.06609e-06
4.26025e-06
1.07067e-06
3.18968e-06
1.07045e-06
2.12163e-06
1.06808e-06
1.05666e-06
1.06486e-06
1.05676e-06
8.68905e-07
-1.79873e-06
4.89924e-06
-7.72347e-06
8.44709e-06
-6.82218e-06
1.07805e-05
-4.54126e-06
1.20235e-05
-2.44272e-06
1.24821e-05
-8.70282e-07
1.23944e-05
2.34303e-07
1.19013e-05
1.00124e-06
1.11327e-05
1.50478e-06
1.01904e-05
1.82402e-06
9.14317e-06
2.01852e-06
8.03592e-06
2.1311e-06
6.89781e-06
2.19095e-06
5.7454e-06
2.21823e-06
4.58975e-06
2.22654e-06
3.43526e-06
2.22477e-06
2.28443e-06
2.21895e-06
1.13616e-06
2.21274e-06
2.19303e-06
5.08519e-07
-2.30723e-06
4.87564e-06
-1.20906e-05
8.74181e-06
-1.06884e-05
1.11324e-05
-6.93166e-06
1.23046e-05
-3.61496e-06
1.26564e-05
-1.22197e-06
1.24558e-05
4.34902e-07
1.18841e-05
1.57312e-06
1.10717e-05
2.3171e-06
1.01091e-05
2.78675e-06
9.05612e-06
3.07163e-06
7.95178e-06
3.23526e-06
6.82177e-06
3.32132e-06
5.68033e-06
3.35945e-06
4.53702e-06
3.36997e-06
3.39557e-06
3.36606e-06
2.25799e-06
3.35664e-06
1.12317e-06
3.34724e-06
3.31629e-06
-1.00251e-07
-2.20698e-06
4.75844e-06
-1.69492e-05
9.21899e-06
-1.5149e-05
1.16883e-05
-9.40076e-06
1.27389e-05
-4.66567e-06
1.29586e-05
-1.44154e-06
1.26518e-05
7.41707e-07
1.20017e-05
2.22329e-06
1.11362e-05
3.18259e-06
1.01396e-05
3.78345e-06
9.06606e-06
4.14534e-06
7.95008e-06
4.35107e-06
6.81421e-06
4.45749e-06
5.67066e-06
4.50281e-06
4.52747e-06
4.51325e-06
3.38757e-06
4.50584e-06
2.25235e-06
4.49198e-06
1.12045e-06
4.47886e-06
4.4368e-06
-1.48418e-06
-7.22788e-07
4.52977e-06
-2.29632e-05
9.92905e-06
-2.05483e-05
1.24841e-05
-1.19557e-05
1.3333e-05
-5.5146e-06
1.33641e-05
-1.47252e-06
1.29191e-05
1.18672e-06
1.21716e-05
2.97087e-06
1.12399e-05
4.11426e-06
1.01997e-05
4.82371e-06
9.09838e-06
5.24684e-06
7.96522e-06
5.48403e-06
6.8192e-06
5.60373e-06
5.67023e-06
5.65164e-06
4.52456e-06
5.659e-06
3.38414e-06
5.64614e-06
2.24957e-06
5.62667e-06
1.11903e-06
5.60914e-06
5.55588e-06
-1.46926e-06
7.46492e-07
5.12316e-06
-2.95556e-05
1.10515e-05
-2.64768e-05
1.3542e-05
-1.4446e-05
1.40893e-05
-6.06186e-06
1.38629e-05
-1.24611e-06
1.32421e-05
1.80756e-06
1.23751e-05
3.838e-06
1.13636e-05
5.12587e-06
1.02711e-05
5.91618e-06
9.13656e-06
6.38158e-06
7.9829e-06
6.6375e-06
6.82474e-06
6.76205e-06
5.66928e-06
6.80702e-06
4.5207e-06
6.80767e-06
3.37971e-06
6.78702e-06
2.24599e-06
6.76048e-06
1.11716e-06
6.73774e-06
6.67306e-06
2.68437e-06
-1.93785e-06
8.30151e-06
-3.51727e-05
1.29151e-05
-3.10904e-05
1.4831e-05
-1.63618e-05
1.49781e-05
-6.20896e-06
1.44468e-05
-7.14728e-07
1.36119e-05
2.64244e-06
1.26054e-05
4.84464e-06
1.15021e-05
6.22916e-06
1.03503e-05
7.06794e-06
9.17821e-06
7.55386e-06
8.00148e-06
7.81408e-06
6.82976e-06
7.93391e-06
5.66712e-06
7.96963e-06
4.51541e-06
7.95944e-06
3.37398e-06
7.92834e-06
2.24145e-06
7.89306e-06
1.1148e-06
7.86419e-06
7.78787e-06
7.51574e-06
-9.45357e-06
1.28845e-05
-4.05415e-05
1.54708e-05
-3.36766e-05
1.63045e-05
-1.71954e-05
1.59437e-05
-5.84817e-06
1.50864e-05
1.42645e-07
1.40153e-05
3.71355e-06
1.28541e-05
6.00589e-06
1.16505e-05
7.43287e-06
1.04342e-05
8.2842e-06
9.22138e-06
8.76676e-06
8.01984e-06
9.01555e-06
6.8336e-06
9.12022e-06
5.66336e-06
9.13987e-06
4.50849e-06
9.11435e-06
3.36685e-06
9.06988e-06
2.23591e-06
9.02402e-06
1.11194e-06
8.98803e-06
8.89981e-06
9.72166e-06
-4.74888e-05
2.07772e-05
-5.61624e-05
3.15225e-05
-5.45437e-05
4.24107e-05
-5.48585e-05
5.36554e-05
-5.66643e-05
6.53562e-05
-5.92033e-05
7.76255e-05
-6.23541e-05
9.05809e-05
-6.62045e-05
0.000104396
-7.0889e-05
0.00011923
-7.64185e-05
0.000135382
-8.3565e-05
0.000152831
-9.11854e-05
0.00017244
-0.000100442
0.00019658
-0.000115543
0.00022481
-0.00013501
0.000245207
-0.000142368
0.000217212
-6.63418e-05
0.000169609
3.76014e-05
0.000119225
0.000107822
7.65346e-05
0.000139995
4.88193e-05
0.000169756
5.94581e-05
0.000232929
0.000474425
0.000176714
9.44791e-06
-5.69367e-05
1.98758e-05
-6.65903e-05
3.00544e-05
-6.47224e-05
4.04005e-05
-6.52046e-05
5.10655e-05
-6.73293e-05
6.21211e-05
-7.02589e-05
7.36553e-05
-7.38883e-05
8.5771e-05
-7.83202e-05
9.8587e-05
-8.3705e-05
0.000112248
-9.00795e-05
0.000126963
-9.82797e-05
0.000142534
-0.000106756
0.000160148
-0.000118056
0.000182058
-0.000137453
0.00020641
-0.000159362
0.000195074
-0.000131032
0.000150437
-2.17042e-05
9.9471e-05
8.85671e-05
6.34375e-05
0.000143856
4.39072e-05
0.000159526
4.10554e-05
0.000172608
7.10921e-05
0.000202893
0.000341578
0.000203939
9.09871e-06
-6.60354e-05
1.88228e-05
-7.63144e-05
2.83591e-05
-7.42588e-05
3.80859e-05
-7.49313e-05
4.80849e-05
-7.73283e-05
5.83994e-05
-8.05734e-05
6.90947e-05
-8.45836e-05
8.02477e-05
-8.94732e-05
9.19297e-05
-9.5387e-05
0.000104244
-0.000102394
0.000117287
-0.000111323
0.000130745
-0.000120214
0.000146202
-0.000133513
0.000164089
-0.00015534
0.00017429
-0.000169563
0.000146318
-0.00010306
8.97245e-05
3.48894e-05
5.13954e-05
0.000126896
3.74878e-05
0.000157764
3.56028e-05
0.000161411
4.26889e-05
0.000165522
6.67023e-05
0.00017888
0.000235
0.00017328
8.6712e-06
-7.47067e-05
1.76348e-05
-8.5278e-05
2.64779e-05
-8.31018e-05
3.55219e-05
-8.39754e-05
4.47851e-05
-8.65915e-05
5.42856e-05
-9.00739e-05
6.40672e-05
-9.43652e-05
7.41769e-05
-9.95828e-05
8.4644e-05
-0.000105854
9.55225e-05
-0.000113272
0.000106782
-0.000122583
0.0001181
-0.000131532
0.000131305
-0.000146719
0.000145035
-0.000169069
0.000144158
-0.000168686
9.4288e-05
-5.31904e-05
4.55272e-05
8.36503e-05
2.68931e-05
0.00014553
2.85536e-05
0.000156104
3.49979e-05
0.000154967
4.48005e-05
0.000155719
6.46392e-05
0.000159041
0.00017118
0.000128459
8.17374e-06
-8.28804e-05
1.63377e-05
-9.34419e-05
2.44533e-05
-9.12174e-05
3.27681e-05
-9.22902e-05
4.12461e-05
-9.50695e-05
4.98861e-05
-9.87139e-05
5.87123e-05
-0.000103191
6.77441e-05
-0.000108615
7.6976e-05
-0.000115086
8.64195e-05
-0.000122716
9.59334e-05
-0.000132097
0.000105283
-0.000140882
0.000116142
-0.000157578
0.000125202
-0.00017813
0.000104692
-0.000148176
5.08863e-05
6.15617e-07
1.9903e-05
0.000114634
1.83079e-05
0.000147125
2.66368e-05
0.000147775
3.59445e-05
0.000145659
4.7137e-05
0.000144527
6.37109e-05
0.000142467
0.000139734
9.51574e-05
7.61494e-06
-9.04953e-05
1.49578e-05
-0.000100785
2.23255e-05
-9.85851e-05
2.988e-05
-9.98448e-05
3.75426e-05
-0.000102732
4.52987e-05
-0.00010647
5.31558e-05
-0.000111049
6.11111e-05
-0.00011657
6.91341e-05
-0.000123109
7.72067e-05
-0.000130788
8.51247e-05
-0.000140015
9.28385e-05
-0.000148596
0.000101324
-0.000166063
0.000105197
-0.000182003
7.67827e-05
-0.000119761
2.85695e-05
4.88288e-05
1.17776e-05
0.000131426
1.73268e-05
0.000141576
2.64051e-05
0.000138696
3.55973e-05
0.000136467
4.59945e-05
0.00013413
5.83611e-05
0.000130101
0.000123846
7.42496e-05
7.00482e-06
-9.75001e-05
1.35211e-05
-0.000107301
2.01323e-05
-0.000105196
2.69094e-05
-0.000106622
3.37436e-05
-0.000109566
4.06119e-05
-0.000113338
4.75088e-05
-0.000117945
5.4415e-05
-0.000123476
6.12849e-05
-0.000129979
6.80831e-05
-0.000137586
7.45821e-05
-0.000146514
8.0917e-05
-0.00015493
8.7269e-05
-0.000172415
8.87145e-05
-0.000183449
4.9246e-05
-8.02929e-05
1.3011e-05
8.50638e-05
9.26878e-06
0.000135168
1.72566e-05
0.000133588
2.5268e-05
0.000130685
3.32559e-05
0.000128479
4.18872e-05
0.000125498
5.11058e-05
0.000120882
0.00011402
6.09312e-05
6.35655e-06
-0.000103857
1.20525e-05
-0.000112997
1.79075e-05
-0.000111051
2.39019e-05
-0.000112616
2.99086e-05
-0.000115573
3.58999e-05
-0.00011933
4.18609e-05
-0.000123906
4.77608e-05
-0.000129376
5.35474e-05
-0.000135766
5.91751e-05
-0.000143214
6.44204e-05
-0.000151759
6.95493e-05
-0.000160059
7.42277e-05
-0.000177093
7.335e-05
-0.000182571
2.17183e-05
-2.86613e-05
4.37877e-07
0.000106344
7.97972e-06
0.000127626
1.61718e-05
0.000125396
2.31531e-05
0.000123704
2.99729e-05
0.000121659
3.69946e-05
0.000118477
4.40929e-05
0.000113784
0.000107223
5.08899e-05
5.68298e-06
-0.00010954
1.05745e-05
-0.000117888
1.56809e-05
-0.000116158
2.08973e-05
-0.000117833
2.60883e-05
-0.000120764
3.12242e-05
-0.000124466
3.6283e-05
-0.000128965
4.1227e-05
-0.00013432
4.60027e-05
-0.000140541
5.05582e-05
-0.000147769
5.4699e-05
-0.0001559
5.87426e-05
-0.000164103
6.1942e-05
-0.000180293
5.63657e-05
-0.000176995
9.57344e-06
1.8131e-05
-5.13366e-07
0.000116432
8.33579e-06
0.000118777
1.51552e-05
0.000118577
2.10112e-05
0.000117848
2.66302e-05
0.00011604
3.21832e-05
0.000112924
3.75556e-05
0.000108411
0.000102413
4.23663e-05
4.99614e-06
-0.000114536
9.10506e-06
-0.000121997
1.3476e-05
-0.000120529
1.79269e-05
-0.000122284
2.23216e-05
-0.000125159
2.66306e-05
-0.000128775
3.08266e-05
-0.000133161
3.48692e-05
-0.000138363
3.8706e-05
-0.000144378
4.22797e-05
-0.000151343
4.5443e-05
-0.000159063
4.84283e-05
-0.000167088
5.05965e-05
-0.000182461
3.52208e-05
-0.000161619
4.26646e-06
4.90855e-05
3.97301e-06
0.000116725
9.64724e-06
0.000113103
1.46993e-05
0.000113525
1.91796e-05
0.000113368
2.3458e-05
0.000111762
2.76125e-05
0.000108769
3.15494e-05
0.000104475
9.89641e-05
3.49981e-05
4.30374e-06
-0.00011884
7.65752e-06
-0.000125351
1.13108e-05
-0.000124182
1.50138e-05
-0.000125987
1.8637e-05
-0.000128782
2.2152e-05
-0.00013229
2.55291e-05
-0.000136538
2.87294e-05
-0.000141563
3.1705e-05
-0.000147354
3.43861e-05
-0.000154024
3.66684e-05
-0.000161346
3.85267e-05
-0.000168946
4.04463e-05
-0.00018438
1.37846e-05
-0.000134957
-2.80408e-06
6.56742e-05
5.80629e-06
0.000108115
1.08934e-05
0.000108016
1.44926e-05
0.000109926
1.75418e-05
0.000110318
2.04342e-05
0.00010887
2.32898e-05
0.000105914
2.60452e-05
0.000101719
9.65104e-05
2.84991e-05
3.62262e-06
-0.000122462
6.26171e-06
-0.00012799
9.22489e-06
-0.000127145
1.22094e-05
-0.000128971
1.51004e-05
-0.000131673
1.78687e-05
-0.000135058
2.04826e-05
-0.000139152
2.29014e-05
-0.000143982
2.50838e-05
-0.000149536
2.68943e-05
-0.000155835
2.81946e-05
-0.000162646
2.86442e-05
-0.000169396
2.92371e-05
-0.000184973
6.73917e-06
-0.000112459
2.02003e-06
7.03934e-05
1.02546e-05
9.98801e-05
1.31411e-05
0.00010513
1.47751e-05
0.000108292
1.60805e-05
0.000109013
1.748e-05
0.00010747
1.91021e-05
0.000104292
2.08586e-05
9.99629e-05
9.48171e-05
2.25521e-05
2.99103e-06
-0.000125453
4.96912e-06
-0.000129968
7.29639e-06
-0.000129472
9.62148e-06
-0.000131296
1.1847e-05
-0.000133898
1.39376e-05
-0.000137148
1.58524e-05
-0.000141067
1.75332e-05
-0.000145662
1.89321e-05
-0.000150935
1.97444e-05
-0.000156647
1.95956e-05
-0.000162497
1.85127e-05
-0.000168313
1.49364e-05
-0.000181397
4.8563e-06
-0.000102379
1.25726e-05
6.26772e-05
1.7695e-05
9.47579e-05
1.70221e-05
0.000105803
1.55894e-05
0.000109725
1.46146e-05
0.000109988
1.43687e-05
0.000107716
1.48182e-05
0.000103843
1.57444e-05
9.90368e-05
9.36796e-05
1.68819e-05
2.40868e-06
-0.000127862
3.77412e-06
-0.000131334
5.53171e-06
-0.00013123
7.26212e-06
-0.000133027
8.87253e-06
-0.000135509
1.03191e-05
-0.000138595
1.15384e-05
-0.000142286
1.24453e-05
-0.000146569
1.29728e-05
-0.000151462
1.28749e-05
-0.000156549
1.15654e-05
-0.000161187
1.16726e-05
-0.00016842
1.78877e-06
-0.000171513
1.78615e-05
-0.000118452
3.69814e-05
4.35574e-05
3.04263e-05
0.000101313
2.20834e-05
0.000114146
1.62805e-05
0.000115528
1.25507e-05
0.000113718
1.06354e-05
0.000109632
1.00883e-05
0.00010439
1.04228e-05
9.87023e-05
9.28628e-05
1.12396e-05
1.77306e-06
-0.000129635
2.52808e-06
-0.000132089
3.70245e-06
-0.000132404
4.80309e-06
-0.000134127
5.73244e-06
-0.000136438
6.44669e-06
-0.000139309
6.86594e-06
-0.000142706
6.91598e-06
-0.000146619
6.50497e-06
-0.000151051
6.56514e-06
-0.000156609
8.16223e-06
-0.000162785
1.83104e-05
-0.000178569
1.99705e-05
-0.000173173
5.61249e-05
-0.000154606
7.27097e-05
2.69726e-05
4.87154e-05
0.000125307
2.69458e-05
0.000135915
1.53813e-05
0.000127092
8.83841e-06
0.000120261
5.61156e-06
0.000112858
4.49094e-06
0.00010551
4.61109e-06
9.85821e-05
9.20617e-05
5.41226e-06
8.19433e-07
-0.000130454
7.98085e-07
-0.000132067
1.14137e-06
-0.000132748
1.32795e-06
-0.000134314
1.31555e-06
-0.000136426
1.07295e-06
-0.000139067
6.46227e-07
-0.000142279
2.96765e-07
-0.00014627
1.89132e-07
-0.000150944
3.69525e-06
-0.000160116
1.68236e-05
-0.000175913
3.66148e-05
-0.00019836
6.18929e-05
-0.000198452
6.56929e-05
-0.000158406
9.90794e-05
-6.41387e-06
5.89188e-05
0.000165468
2.61789e-05
0.000168655
1.00534e-05
0.000143218
1.96878e-06
0.000128345
-1.41984e-06
0.000116247
-2.35458e-06
0.000106445
-1.90237e-06
9.81299e-05
9.09004e-05
-7.41035e-07
-8.91554e-07
-0.000129563
-2.58773e-06
-0.000130371
-3.85936e-06
-0.000131476
-5.36203e-06
-0.000132811
-6.80939e-06
-0.000134979
-8.2468e-06
-0.000137629
-9.14443e-06
-0.000141381
-7.84584e-06
-0.000147568
-1.05932e-06
-0.00015773
1.63142e-05
-0.000177489
5.04321e-05
-0.000210031
6.31319e-05
-0.00021106
7.22551e-05
-0.000207575
5.58533e-05
-0.000142005
7.55671e-05
-2.61277e-05
3.95983e-05
0.000201437
1.08173e-05
0.000197436
-4.08483e-06
0.00015812
-9.64154e-06
0.000133902
-1.12145e-05
0.00011782
-1.07337e-05
0.000105964
-9.21633e-06
9.66125e-05
8.89328e-05
-7.24867e-06
-2.96434e-06
-0.000126598
-6.54369e-06
-0.000126792
-9.47414e-06
-0.000128545
-1.20178e-05
-0.000130268
-1.36758e-05
-0.00013332
-1.42251e-05
-0.00013708
-1.22179e-05
-0.000143388
-6.51712e-06
-0.000153269
3.97777e-06
-0.000168225
2.22352e-05
-0.000195746
4.63735e-05
-0.000234169
6.82139e-05
-0.0002329
5.08614e-05
-0.000190222
9.19075e-06
-0.000100334
-1.85642e-05
1.62724e-06
-2.21883e-05
0.000205061
-2.62902e-05
0.000201538
-2.7e-05
0.00015883
-2.57535e-05
0.000132656
-2.33293e-05
0.000115396
-2.02884e-05
0.000102923
-1.70754e-05
9.33995e-05
8.57962e-05
-1.39387e-05
-3.68822e-06
-0.00012291
-6.90534e-06
-0.000123575
-1.02349e-05
-0.000125216
-1.3384e-05
-0.000127119
-1.64093e-05
-0.000130295
-1.85689e-05
-0.00013492
-2.00268e-05
-0.000141931
-2.14384e-05
-0.000151858
-2.15437e-05
-0.00016812
-2.02468e-05
-0.000197044
-2.2343e-05
-0.000232072
-2.1917e-05
-0.000233326
-3.94607e-05
-0.000172678
-6.88117e-05
-7.09831e-05
-0.000106366
3.91816e-05
-9.50092e-05
0.000193704
-7.02721e-05
0.000176801
-5.44666e-05
0.000143024
-4.41792e-05
0.000122368
-3.64869e-05
0.000107703
-3.02335e-05
9.66699e-05
-2.49792e-05
8.81452e-05
8.12926e-05
-2.04757e-05
-4.38431e-06
-0.000118526
-8.09244e-06
-0.000119867
-1.22862e-05
-0.000121022
-1.64856e-05
-0.000122919
-2.1024e-05
-0.000125757
-2.60627e-05
-0.000129881
-3.23299e-05
-0.000135663
-4.06249e-05
-0.000143563
-5.27201e-05
-0.000156025
-7.26057e-05
-0.000177158
-0.000103246
-0.000201432
-0.000132223
-0.00020435
-0.000147051
-0.00015785
-0.000162448
-5.55864e-05
-0.000186765
6.34982e-05
-0.000149009
0.000155948
-0.000104479
0.000132271
-7.7838e-05
0.000116383
-6.05835e-05
0.000105114
-4.84118e-05
9.55315e-05
-3.93178e-05
8.7576e-05
-3.21984e-05
8.10257e-05
7.5511e-05
-2.64168e-05
-4.68116e-06
-0.000113845
-9.21258e-06
-0.000115335
-1.40472e-05
-0.000116187
-1.92053e-05
-0.000117761
-2.49662e-05
-0.000119996
-3.17546e-05
-0.000123093
-4.0298e-05
-0.00012712
-5.1672e-05
-0.000132189
-6.88617e-05
-0.000138835
-9.75896e-05
-0.00014843
-0.000139263
-0.000159759
-0.000185137
-0.000158476
-0.000222442
-0.000120545
-0.000236973
-4.10555e-05
-0.000221474
4.79994e-05
-0.000162427
9.69007e-05
-0.000118598
8.84422e-05
-9.09114e-05
8.86959e-05
-7.13388e-05
8.5541e-05
-5.70807e-05
8.12733e-05
-4.63705e-05
7.68657e-05
-3.80348e-05
7.26899e-05
6.88178e-05
-3.13416e-05
-5.07342e-06
-0.000108771
-1.0331e-05
-0.000110078
-1.57784e-05
-0.00011074
-2.1722e-05
-0.000111817
-2.83961e-05
-0.000113322
-3.62293e-05
-0.00011526
-4.5735e-05
-0.000117614
-5.76345e-05
-0.000120289
-7.3683e-05
-0.000122787
-9.7582e-05
-0.000124531
-0.000132899
-0.000124442
-0.000175804
-0.000115571
-0.00021087
-8.54792e-05
-0.000218646
-3.32791e-05
-0.000191592
2.09455e-05
-0.000147184
5.2492e-05
-0.000116833
5.80912e-05
-9.37494e-05
6.56123e-05
-7.57187e-05
6.75101e-05
-6.17589e-05
6.73134e-05
-5.08168e-05
6.59235e-05
-4.20878e-05
6.39609e-05
6.17173e-05
-3.49873e-05
-5.3886e-06
-0.000103383
-1.09667e-05
-0.000104499
-1.67987e-05
-0.000104908
-2.31364e-05
-0.00010548
-3.02338e-05
-0.000106224
-3.84449e-05
-0.000107049
-4.82123e-05
-0.000107847
-6.01504e-05
-0.000108351
-7.50305e-05
-0.000107907
-9.38194e-05
-0.000105742
-0.000117739
-0.000100522
-0.000145138
-8.81726e-05
-0.000166688
-6.39286e-05
-0.000170191
-2.9776e-05
-0.000152019
2.77279e-06
-0.000126547
2.70198e-05
-0.00010756
3.91041e-05
-9.01395e-05
4.8192e-05
-7.5303e-05
5.26736e-05
-6.29727e-05
5.4983e-05
-5.27802e-05
5.57309e-05
-4.43405e-05
5.55212e-05
5.46796e-05
-3.73028e-05
-5.57274e-06
-9.78105e-05
-1.13008e-05
-9.87717e-05
-1.73294e-05
-9.88792e-05
-2.38058e-05
-9.90034e-05
-3.09598e-05
-9.907e-05
-3.90411e-05
-9.89678e-05
-4.8366e-05
-9.85217e-05
-5.93262e-05
-9.73909e-05
-7.21908e-05
-9.50419e-05
-8.69606e-05
-9.09723e-05
-0.000103429
-8.40538e-05
-0.00011993
-7.16717e-05
-0.000131722
-5.21363e-05
-0.000133411
-2.80871e-05
-0.000125275
-5.36304e-06
-0.000110945
1.26897e-05
-9.74395e-05
2.55984e-05
-8.41719e-05
3.49242e-05
-7.22979e-05
4.07995e-05
-6.18577e-05
4.45427e-05
-5.28251e-05
4.66983e-05
-4.50646e-05
4.77606e-05
4.80293e-05
-3.84144e-05
-5.60843e-06
-9.22018e-05
-1.13504e-05
-9.30295e-05
-1.7366e-05
-9.28634e-05
-2.37654e-05
-9.2604e-05
-3.07173e-05
-9.21181e-05
-3.83922e-05
-9.12923e-05
-4.6974e-05
-8.99401e-05
-5.66106e-05
-8.77543e-05
-6.73286e-05
-8.43237e-05
-7.90792e-05
-7.92216e-05
-9.14474e-05
-7.16855e-05
-0.000102645
-6.04744e-05
-0.000109633
-4.51484e-05
-0.000110346
-2.73733e-05
-0.00010558
-1.01291e-05
-9.73261e-05
4.43528e-06
-8.77075e-05
1.59797e-05
-7.76545e-05
2.48711e-05
-6.81379e-05
3.12829e-05
-5.94039e-05
3.58086e-05
-5.15714e-05
3.88658e-05
-4.46313e-05
4.08205e-05
4.19334e-05
-3.85356e-05
-5.51359e-06
-8.66883e-05
-1.1167e-05
-8.73762e-05
-1.70145e-05
-8.70157e-05
-2.3177e-05
-8.64415e-05
-2.97595e-05
-8.55359e-05
-3.68665e-05
-8.4185e-05
-4.45906e-05
-8.22161e-05
-5.29575e-05
-7.93873e-05
-6.18676e-05
-7.54135e-05
-7.11141e-05
-6.99751e-05
-8.02236e-05
-6.2576e-05
-8.80413e-05
-5.26567e-05
-9.29009e-05
-4.02888e-05
-9.37059e-05
-2.65684e-05
-9.07807e-05
-1.30544e-05
-8.52649e-05
-1.08048e-06
-7.84343e-05
9.14904e-06
-7.09076e-05
1.73444e-05
-6.33613e-05
2.37366e-05
-5.61442e-05
2.85915e-05
-4.94512e-05
3.21727e-05
-4.33558e-05
3.4725e-05
3.64579e-05
-3.78803e-05
-5.30871e-06
-8.13794e-05
-1.07604e-05
-8.19245e-05
-1.63409e-05
-8.14354e-05
-2.2159e-05
-8.06231e-05
-2.82767e-05
-7.94183e-05
-3.47466e-05
-7.77151e-05
-4.1593e-05
-7.53697e-05
-4.87768e-05
-7.22035e-05
-5.61721e-05
-6.80183e-05
-6.3555e-05
-6.25923e-05
-7.04785e-05
-5.56525e-05
-7.61397e-05
-4.69956e-05
-7.96262e-05
-3.68024e-05
-8.04249e-05
-2.57698e-05
-7.86519e-05
-1.48274e-05
-7.49953e-05
-4.73713e-06
-6.99815e-05
4.13516e-06
-6.42708e-05
1.16336e-05
-5.83086e-05
1.77745e-05
-5.2402e-05
2.26849e-05
-4.67526e-05
2.65233e-05
-4.14743e-05
2.94467e-05
3.16143e-05
-3.66308e-05
-5.03271e-06
-7.63468e-05
-1.01853e-05
-7.67718e-05
-1.54341e-05
-7.6187e-05
-2.08443e-05
-7.52127e-05
-2.64525e-05
-7.38103e-05
-3.22755e-05
-7.18922e-05
-3.82982e-05
-6.93469e-05
-4.4454e-05
-6.60477e-05
-5.06102e-05
-6.18622e-05
-5.65511e-05
-5.66513e-05
-6.19218e-05
-5.02819e-05
-6.62034e-05
-4.2714e-05
-6.88679e-05
-3.4138e-05
-6.963e-05
-2.50077e-05
-6.85581e-05
-1.58993e-05
-6.60021e-05
-7.29327e-06
-6.23424e-05
4.75447e-07
-5.79782e-05
7.26939e-06
-5.32565e-05
1.30528e-05
-4.84363e-05
1.78648e-05
-4.37021e-05
2.17891e-05
-3.91763e-05
2.49209e-05
2.73787e-05
-3.49406e-05
-4.71531e-06
-7.16315e-05
-9.50896e-06
-7.19782e-05
-1.438e-05
-7.13159e-05
-1.93495e-05
-7.02432e-05
-2.44353e-05
-6.87247e-05
-2.96321e-05
-6.66955e-05
-3.49045e-05
-6.40745e-05
-4.01771e-05
-6.07751e-05
-4.53261e-05
-5.67133e-05
-5.01654e-05
-5.18121e-05
-5.44265e-05
-4.60208e-05
-5.77726e-05
-3.9368e-05
-5.98904e-05
-3.20203e-05
-6.06132e-05
-2.42851e-05
-5.9977e-05
-1.65356e-05
-5.81652e-05
-9.10512e-06
-5.54541e-05
-2.23565e-06
-5.20956e-05
3.91078e-06
-4.83465e-05
9.30375e-06
-4.44162e-05
1.39344e-05
-4.04649e-05
1.78378e-05
-3.66097e-05
2.10657e-05
2.37057e-05
-3.29366e-05
-4.36808e-06
-6.72635e-05
-8.77912e-06
-6.75674e-05
-1.32451e-05
-6.685e-05
-1.77625e-05
-6.5726e-05
-2.23341e-05
-6.41531e-05
-2.69422e-05
-6.20875e-05
-3.15429e-05
-5.94738e-05
-3.60621e-05
-5.62559e-05
-4.03904e-05
-5.23851e-05
-4.43765e-05
-4.7826e-05
-4.7824e-05
-4.25734e-05
-5.05111e-05
-3.6681e-05
-5.22447e-05
-3.02867e-05
-5.29231e-05
-2.36068e-05
-5.25631e-05
-1.68956e-05
-5.12738e-05
-1.03945e-05
-4.92358e-05
-4.27375e-06
-4.66323e-05
1.30732e-06
-4.36452e-05
6.31666e-06
-4.04402e-05
1.07294e-05
-3.71512e-05
1.45488e-05
-3.38831e-05
1.77976e-05
2.05413e-05
-3.07187e-05
-3.99751e-06
-6.32661e-05
-8.02005e-06
-6.35449e-05
-1.20707e-05
-6.27994e-05
-1.61399e-05
-6.16569e-05
-2.02186e-05
-6.00743e-05
-2.42826e-05
-5.80236e-05
-2.82866e-05
-5.547e-05
-3.21625e-05
-5.238e-05
-3.58178e-05
-4.87298e-05
-3.91334e-05
-4.45105e-05
-4.19668e-05
-3.974e-05
-4.41697e-05
-3.44781e-05
-4.56191e-05
-2.88374e-05
-4.62495e-05
-2.29765e-05
-4.60681e-05
-1.70771e-05
-4.51483e-05
-1.13144e-05
-4.35937e-05
-5.82843e-06
-4.15694e-05
-7.16972e-07
-3.91807e-05
3.92796e-06
-3.65654e-05
8.11414e-06
-3.38331e-05
1.18164e-05
-3.10739e-05
1.50385e-05
1.78302e-05
-2.83628e-05
-3.61047e-06
-5.96555e-05
-7.2451e-06
-5.99104e-05
-1.08835e-05
-5.91611e-05
-1.4518e-05
-5.80224e-05
-1.81318e-05
-5.64605e-05
-2.16977e-05
-5.44579e-05
-2.51726e-05
-5.19951e-05
-2.84969e-05
-4.90557e-05
-3.15941e-05
-4.56325e-05
-3.43722e-05
-4.17325e-05
-3.6728e-05
-3.73842e-05
-3.85601e-05
-3.26461e-05
-3.97873e-05
-2.76102e-05
-4.03669e-05
-2.23969e-05
-4.03036e-05
-1.71404e-05
-3.96457e-05
-1.19722e-05
-3.84663e-05
-7.00783e-06
-3.68696e-05
-2.31367e-06
-3.49555e-05
2.01377e-06
-3.28213e-05
5.97992e-06
-3.0556e-05
9.55105e-06
-2.82356e-05
1.27181e-05
1.55198e-05
-2.59252e-05
-3.21902e-06
-5.64364e-05
-6.46781e-06
-5.66618e-05
-9.70451e-06
-5.59244e-05
-1.29224e-05
-5.48046e-05
-1.61009e-05
-5.32821e-05
-1.9212e-05
-5.13469e-05
-2.22165e-05
-4.89906e-05
-2.50635e-05
-4.62087e-05
-2.76913e-05
-4.30047e-05
-3.00291e-05
-3.93947e-05
-3.20019e-05
-3.54114e-05
-3.3539e-05
-3.1109e-05
-3.45859e-05
-2.65634e-05
-3.51142e-05
-2.18686e-05
-3.51269e-05
-1.71277e-05
-3.46562e-05
-1.24429e-05
-3.37584e-05
-7.90566e-06
-3.24927e-05
-3.5794e-06
-3.09595e-05
4.80625e-07
-2.92193e-05
4.23964e-06
-2.73462e-05
7.67792e-06
-2.54036e-05
1.07755e-05
1.35621e-05
-2.34459e-05
-2.83457e-06
-5.36019e-05
-5.70241e-06
-5.3794e-05
-8.55111e-06
-5.30758e-05
-1.1372e-05
-5.19839e-05
-1.41433e-05
-5.05108e-05
-1.68378e-05
-4.86523e-05
-1.94209e-05
-4.64075e-05
-2.18501e-05
-4.37795e-05
-2.40761e-05
-4.07788e-05
-2.60446e-05
-3.74262e-05
-2.77008e-05
-3.37553e-05
-2.89946e-05
-2.98151e-05
-2.98887e-05
-2.56693e-05
-3.03639e-05
-2.13933e-05
-3.04226e-05
-1.7069e-05
-3.00881e-05
-1.27773e-05
-2.94015e-05
-8.59223e-06
-2.84068e-05
-4.57411e-06
-2.71779e-05
-7.48338e-07
-2.57593e-05
2.82105e-06
-2.42163e-05
6.13494e-06
-2.25994e-05
9.15862e-06
1.1915e-05
-2.09524e-05
-2.46386e-06
-5.11381e-05
-4.96004e-06
-5.12979e-05
-7.43551e-06
-5.06003e-05
-9.87847e-06
-4.9541e-05
-1.22678e-05
-4.81215e-05
-1.45784e-05
-4.63417e-05
-1.67803e-05
-4.42057e-05
-1.88385e-05
-4.17214e-05
-2.07139e-05
-3.89035e-05
-2.23652e-05
-3.5775e-05
-2.37518e-05
-3.23687e-05
-2.48383e-05
-2.87287e-05
-2.55984e-05
-2.49092e-05
-2.60193e-05
-2.09724e-05
-2.61034e-05
-1.69849e-05
-2.58682e-05
-1.30125e-05
-2.53438e-05
-9.11657e-06
-2.45671e-05
-5.35089e-06
-2.35783e-05
-1.73716e-06
-2.24309e-05
1.67372e-06
-2.11691e-05
4.87312e-06
-1.98346e-05
7.82418e-06
1.05424e-05
-1.8462e-05
-2.10956e-06
-4.90286e-05
-4.24617e-06
-4.91612e-05
-6.36298e-06
-4.84836e-05
-8.44585e-06
-4.74582e-05
-1.04754e-05
-4.60919e-05
-1.24294e-05
-4.43877e-05
-1.42825e-05
-4.23526e-05
-1.60063e-05
-3.99978e-05
-1.757e-05
-3.73399e-05
-1.89424e-05
-3.44027e-05
-2.00934e-05
-3.12177e-05
-2.09975e-05
-2.78245e-05
-2.16365e-05
-2.42701e-05
-2.20019e-05
-2.0607e-05
-2.2096e-05
-1.68907e-05
-2.19322e-05
-1.31763e-05
-2.1533e-05
-9.51581e-06
-2.09283e-05
-5.95556e-06
-2.01405e-05
-2.52493e-06
-1.92222e-05
7.55411e-07
-1.82014e-05
3.85232e-06
-1.71135e-05
6.73631e-06
9.41384e-06
-1.59851e-05
-1.77045e-06
-4.72582e-05
-3.56011e-06
-4.73716e-05
-5.33168e-06
-4.6712e-05
-7.07039e-06
-4.57194e-05
-8.75926e-06
-4.4403e-05
-1.03793e-05
-4.27677e-05
-1.19097e-05
-4.08223e-05
-1.33277e-05
-3.85798e-05
-1.46096e-05
-3.6058e-05
-1.57316e-05
-3.32807e-05
-1.66717e-05
-3.02776e-05
-1.74116e-05
-2.70846e-05
-1.79386e-05
-2.37432e-05
-1.8247e-05
-2.02986e-05
-1.83393e-05
-1.67984e-05
-1.82259e-05
-1.32898e-05
-1.79239e-05
-9.8178e-06
-1.74561e-05
-6.42336e-06
-1.68425e-05
-3.1385e-06
-1.61194e-05
3.23707e-08
-1.53059e-05
3.0388e-06
-1.44354e-05
5.86579e-06
8.5046e-06
-1.35262e-05
-1.44342e-06
-4.58148e-05
-2.89803e-06