/*--------------------------------*- C++ -*----------------------------------*\
  =========                 |
  \\      /  F ield         | OpenFOAM: The Open Source CFD Toolbox
   \\    /   O peration     | Website:  https://openfoam.org
    \\  /    A nd           | Version:  13
     \\/     M anipulation  |
\*---------------------------------------------------------------------------*/
FoamFile
{
    format      ascii;
    class       surfaceScalarField;
    location    "0.7";
    object      alphaPhi.water;
}
// * * * * * * * * * * * * * * * * * * * * * * * * * * * * * * * * * * * * * //

dimensions      [0 3 -1 0 0 0 0];

internalField   nonuniform List<scalar> 
4432
(
-3.55574e-06
3.55574e-06
-7.21992e-06
3.66417e-06
-9.62494e-06
2.40503e-06
-1.12516e-05
1.62666e-06
-1.20116e-05
7.59968e-07
-1.12221e-05
-7.89444e-07
-8.72933e-06
-2.4928e-06
-5.61815e-06
-3.11118e-06
-3.22373e-06
-2.39443e-06
-2.03651e-06
-1.18722e-06
-1.96655e-06
-6.99696e-08
-2.79258e-06
8.2604e-07
-4.19814e-06
1.40555e-06
-6.04723e-06
1.8491e-06
-8.39578e-06
2.34855e-06
-1.12068e-05
2.81104e-06
-1.34262e-05
2.37388e-06
-1.49635e-05
1.86199e-06
-1.87727e-05
4.00207e-06
-2.51199e-05
5.45897e-06
-2.47478e-05
-3.56767e-07
-1.4738e-05
-9.99418e-06
-1.47245e-05
-4.56562e-06
8.12137e-06
-7.78236e-06
6.88091e-06
-9.62305e-06
4.24572e-06
-1.12041e-05
3.20774e-06
-1.22452e-05
1.80105e-06
-1.17113e-05
-1.32338e-06
-9.2225e-06
-4.98159e-06
-5.90006e-06
-6.43362e-06
-3.28179e-06
-5.0127e-06
-1.9771e-06
-2.4919e-06
-1.62325e-06
-4.23837e-07
-1.8278e-06
1.03059e-06
-2.40048e-06
1.97824e-06
-3.27583e-06
2.72443e-06
-4.59644e-06
3.66917e-06
-6.79011e-06
5.00479e-06
-1.04698e-05
6.06946e-06
-1.47769e-05
6.90787e-06
-1.90959e-05
8.31735e-06
-2.11166e-05
6.87237e-06
-1.80241e-05
-3.41789e-06
-1.04736e-05
-1.72444e-05
-2.51792e-05
-3.71144e-06
1.18328e-05
-6.32671e-06
9.49618e-06
-8.29669e-06
6.21569e-06
-1.03986e-05
5.30968e-06
-1.19576e-05
3.36005e-06
-1.17078e-05
-1.57318e-06
-9.47758e-06
-7.21183e-06
-6.36295e-06
-9.54826e-06
-3.80505e-06
-7.57061e-06
-2.48435e-06
-3.8126e-06
-2.21237e-06
-6.95818e-07
-2.49477e-06
1.31298e-06
-2.93389e-06
2.41737e-06
-3.25939e-06
3.04993e-06
-3.33506e-06
3.74482e-06
-3.39679e-06
5.06654e-06
-4.31803e-06
6.99069e-06
-6.61269e-06
9.23374e-06
-8.46466e-06
1.10065e-05
-9.09935e-06
7.49172e-06
-7.5215e-06
-5.01108e-06
-4.05007e-06
-2.07312e-05
-2.93318e-05
-2.29746e-06
1.41303e-05
-4.18433e-06
1.1383e-05
-6.01728e-06
8.04864e-06
-7.87415e-06
7.16655e-06
-9.00683e-06
4.49273e-06
-8.66969e-06
-1.91032e-06
-7.22506e-06
-8.65646e-06
-5.50713e-06
-1.12662e-05
-4.06935e-06
-9.0084e-06
-3.20753e-06
-4.67441e-06
-3.04011e-06
-8.6324e-07
-3.37086e-06
1.64373e-06
-3.87734e-06
2.92385e-06
-4.18828e-06
3.36086e-06
-4.04943e-06
3.60597e-06
-3.31787e-06
4.33498e-06
-2.04809e-06
5.72089e-06
-6.12268e-07
7.79791e-06
9.7545e-07
9.41882e-06
2.49443e-06
6.3133e-06
2.50169e-06
-5.01473e-06
1.93772e-06
-2.10237e-05
-2.74922e-05
-4.7842e-07
1.46087e-05
-9.57857e-07
1.18625e-05
-1.98415e-06
9.07493e-06
-2.67473e-06
7.85714e-06
-2.34808e-06
4.16607e-06
-1.50643e-06
-2.75198e-06
-1.46432e-06
-8.69858e-06
-2.40124e-06
-1.03293e-05
-3.33274e-06
-8.07692e-06
-3.80071e-06
-4.20644e-06
-4.04742e-06
-6.1653e-07
-4.39565e-06
1.99195e-06
-4.81627e-06
3.34448e-06
-5.02423e-06
3.56882e-06
-4.77384e-06
3.35558e-06
-4.03417e-06
3.59532e-06
-2.46653e-06
4.15325e-06
2.07609e-07
5.12376e-06
4.11141e-06
5.51502e-06
7.65442e-06
2.77026e-06
7.63823e-06
-5.43024e-06
4.81837e-06
-1.82038e-05
-2.26741e-05
1.83684e-06
1.27719e-05
3.17564e-06
1.05237e-05
3.96582e-06
8.28474e-06
5.21516e-06
6.6078e-06
6.9468e-06
2.43443e-06
7.48626e-06
-3.29143e-06
5.58126e-06
-6.79362e-06
2.02662e-06
-6.77461e-06
-1.63714e-06
-4.41249e-06
-3.97624e-06
-1.8673e-06
-5.00424e-06
4.11467e-07
-5.5215e-06
2.5092e-06
-5.84151e-06
3.6645e-06
-5.82266e-06
3.54996e-06
-5.32692e-06
2.85983e-06
-4.45612e-06
2.72453e-06
-3.12767e-06
2.82479e-06
-9.24435e-07
2.92052e-06
2.50767e-06
2.08292e-06
6.21423e-06
-9.36295e-07
7.14176e-06
-6.35778e-06
4.99219e-06
-1.60543e-05
-1.76816e-05
3.5519e-06
9.21996e-06
7.43821e-06
6.63739e-06
1.13135e-05
4.40941e-06
1.51015e-05
2.81986e-06
1.73029e-05
2.32983e-07
1.57662e-05
-1.75642e-06
1.09315e-05
-1.96195e-06
5.09811e-06
-9.37051e-07
-1.17565e-07
8.0528e-07
-3.75252e-06
1.76759e-06
-5.68787e-06
2.34674e-06
-6.6293e-06
3.45063e-06
-6.95152e-06
3.98671e-06
-6.71205e-06
3.3105e-06
-5.83598e-06
1.98374e-06
-4.69404e-06
1.58259e-06
-3.36865e-06
1.4994e-06
-1.63847e-06
1.19034e-06
6.3977e-07
-1.95324e-07
3.24408e-06
-3.54061e-06
4.45924e-06
-7.57296e-06
3.88508e-06
-1.54801e-05
-1.37967e-05
6.43131e-06
1.98174e-06
1.28594e-05
-5.50139e-07
1.70272e-05
-5.16481e-07
1.89156e-05
1.26352e-07
1.81341e-05
6.68685e-07
1.43404e-05
1.80841e-06
9.18726e-06
3.22348e-06
3.81679e-06
4.32649e-06
-4.37871e-07
5.05993e-06
-3.48831e-06
4.81801e-06
-5.5588e-06
4.41722e-06
-7.06144e-06
4.95326e-06
-7.81933e-06
4.74457e-06
-7.66986e-06
3.16102e-06
-6.53378e-06
8.47657e-07
-5.11112e-06
1.59928e-07
-3.6304e-06
1.8685e-08
-1.96296e-06
-4.771e-07
-1.86797e-07
-1.97149e-06
1.46498e-06
-5.19239e-06
2.41816e-06
-8.52614e-06
2.61378e-06
-1.56757e-05
-1.11832e-05
-2.82269e-05
2.62159e-05
-4.97898e-05
2.15642e-05
-4.49684e-05
-4.81928e-06
-3.06354e-05
-1.43315e-05
-1.79413e-05
-1.24455e-05
-6.30663e-06
-1.06688e-05
1.27747e-05
-2.39662e-05
1.54019e-05
-4.17634e-06
-8.31175e-06
2.78854e-05
-5.94659e-05
5.11566e-05
-0.000100733
4.12699e-05
-0.000116481
1.57502e-05
-0.000114754
-1.72447e-06
-0.000105956
-8.79572e-06
-9.37581e-05
-1.24653e-05
-7.56479e-05
-1.91884e-05
-4.33562e-05
-3.26385e-05
-4.02571e-07
-4.30329e-05
-4.43664e-07
-3.31607e-05
6.07482e-05
-4.06939e-05
2.90996e-05
-2.96258e-05
-1.58853e-05
-1.65278e-05
-2.74295e-05
-5.74267e-06
-2.32307e-05
4.59909e-06
-2.10105e-05
1.96318e-05
-3.89989e-05
-5.35829e-06
1.83261e-05
-6.55776e-05
8.84296e-05
-0.000117542
0.000103124
-0.000130701
5.44306e-05
-0.000122489
8.94356e-06
-0.000118321
-3.61587e-06
-0.000114082
-9.73401e-06
-0.000106409
-1.66368e-05
-9.20085e-05
-3.19963e-05
-6.31116e-05
-6.14492e-05
-2.01526e-05
-8.59783e-05
-2.05807e-05
-2.26039e-05
8.35469e-05
-2.17544e-05
2.82513e-05
-1.13063e-05
-2.63806e-05
4.53886e-07
-3.91002e-05
7.10365e-06
-2.98804e-05
7.28953e-06
-2.11964e-05
-4.50641e-06
-2.76117e-05
-5.91044e-05
7.20834e-05
-0.000108088
0.000136573
-7.8551e-05
7.17793e-05
-3.13638e-05
8.31794e-06
-2.11145e-05
1.04057e-06
-2.18042e-05
-1.53356e-07
-2.61239e-05
-5.78526e-07
-3.47827e-05
-2.03409e-06
-5.17908e-05
-7.31299e-06
-7.29998e-05
-3.61638e-05
-3.55128e-05
-0.000123536
-5.60809e-05
-8.05866e-06
9.12354e-05
1.89178e-06
1.40694e-05
7.66233e-06
-3.00564e-05
1.65271e-05
-4.76089e-05
1.76654e-05
-3.10187e-05
5.15306e-06
-8.68401e-06
-2.62494e-05
2.90827e-06
-7.46488e-05
0.000119643
-5.87125e-05
0.000113661
-7.46854e-06
2.03227e-05
-1.02591e-06
1.9032e-06
-8.07683e-08
1.05156e-07
-2.17539e-07
-5.42919e-09
-7.27756e-07
-4.5134e-08
-2.48438e-06
-2.03145e-07
-8.26229e-06
-1.23247e-06
-3.08144e-05
-7.44568e-06
-4.16839e-05
-0.000101267
-9.77502e-05
3.20718e-06
5.05894e-05
1.12381e-05
2.45575e-06
2.60062e-05
-3.63961e-05
3.17389e-05
-5.33168e-05
2.65792e-05
-2.58592e-05
2.67819e-06
1.52171e-05
-4.07061e-05
4.52623e-05
-8.47577e-05
0.000163129
-1.66641e-05
4.93878e-05
-1.70907e-06
5.39494e-06
-1.392e-07
3.4307e-07
-4.63175e-08
1.52037e-08
-4.15108e-08
-6.52579e-09
-5.61044e-08
-2.26868e-08
-1.78276e-07
-5.80724e-08
-1.10626e-06
-2.28296e-07
-5.85871e-06
-2.42315e-06
-3.85812e-05
-6.406e-05
-0.000136257
1.23727e-05
3.6414e-05
2.28873e-05
-1.69654e-06
4.09899e-05
-4.83382e-05
4.5202e-05
-5.77046e-05
3.53111e-05
-1.59727e-05
3.83905e-06
4.66891e-05
-4.26887e-05
9.23286e-05
-4.94818e-05
0.000177206
-4.43942e-06
2.66041e-05
-3.08904e-07
1.30688e-06
-3.53254e-08
7.25775e-08
-2.59003e-08
6.35763e-09
-1.9952e-08
-9.64284e-09
-1.72987e-08
-2.02875e-08
-2.18308e-08
-4.80874e-08
-1.42212e-07
-9.35757e-08
-2.07451e-06
-3.98732e-07
-2.96447e-05
-3.31825e-05
-0.000165406
1.60021e-05
1.83945e-05
4.13341e-05
-1.38853e-05
5.25536e-05
-5.87277e-05
5.58013e-05
-6.09758e-05
4.2485e-05
-3.00342e-06
8.15045e-06
8.11091e-05
-3.3551e-05
0.000134112
-1.64928e-05
0.000172005
-1.00803e-06
1.11688e-05
-6.33932e-08
3.67277e-07
-2.02372e-08
3.09118e-08
-1.79646e-08
2.93982e-09
-1.33996e-08
-1.36167e-08
-1.77486e-08
-1.51647e-08
-2.18718e-09
-5.97477e-08
1.01486e-07
-2.17218e-07
-1.0184e-07
-2.6202e-07
-1.85904e-05
-1.20537e-05
-0.000156214
2.56335e-05
4.34814e-06
4.76365e-05
-3.38079e-05
5.64642e-05
-6.60826e-05
5.32865e-05
-5.32008e-05
3.71909e-05
5.22153e-06
1.39471e-05
0.000104195
-2.01829e-05
0.000168759
-5.98639e-06
0.00015897
-2.62281e-07
5.4573e-06
-2.09943e-08
1.27173e-07
-1.44946e-08
2.39539e-08
-1.32152e-08
5.62681e-10
-1.07082e-08
-1.726e-08
-1.1275e-08
-1.31187e-08
8.0615e-08
-1.9631e-07
4.84527e-07
-7.18409e-07
8.19845e-07
-2.92766e-07
-5.80139e-06
-3.24107e-06
-9.86747e-05
1.53854e-06
-3.62518e-07
2.2417e-07
0
-1.43646e-06
0
-2.5744e-06
0
-3.54818e-06
0
-5.20079e-06
1.65616e-07
-7.75619e-06
8.9325e-07
-1.03622e-05
1.85576e-06
-1.18779e-05
2.73776e-06
-1.21342e-05
3.39615e-06
-1.267e-05
4.95296e-06
-1.44467e-05
6.72999e-06
-1.62501e-05
6.54801e-06
-1.59837e-05
2.89465e-06
-1.30233e-05
-2.11274e-06
-1.00718e-05
-2.7916e-06
-7.75203e-06
-2.30112e-06
-5.15741e-06
-3.07172e-06
-1.88783e-06
-5.24107e-06
1.03136e-06
-8.11159e-06
3.90741e-06
-1.14022e-05
5.45695e-06
-1.72253e-05
-1.79432e-05
1.22161e-05
-7.79112e-07
0
-2.66314e-06
5.46602e-09
-3.96157e-06
-4.78728e-10
-5.15932e-06
-4.37943e-09
-6.05836e-06
-3.21117e-08
-6.89225e-06
0
-8.79486e-06
9.12036e-09
-1.27804e-05
0
-1.75946e-05
-5.77429e-07
-2.10621e-05
-1.57624e-06
-2.06892e-05
-2.45677e-06
-1.81571e-05
-7.37454e-07
-1.42648e-05
4.10372e-08
-1.01627e-05
-2.09617e-06
-6.62851e-06
-4.80259e-06
-5.02397e-06
-4.10022e-06
-4.01111e-06
-3.28815e-06
-1.3457e-06
-5.72956e-06
1.89315e-06
-8.48091e-06
2.80409e-06
-9.02242e-06
3.70212e-06
-1.23002e-05
5.75644e-06
-1.92802e-05
-2.43472e-05
1.21584e-05
-5.29726e-09
0
-2.92764e-11
1.38034e-10
-5.13866e-10
2.85698e-12
-4.93863e-09
0
-3.72327e-08
0
-4.21695e-08
0
-3.47274e-08
1.66691e-10
-3.79203e-08
-4.48226e-12
-6.18155e-07
-3.52203e-11
-3.27773e-06
-2.66515e-10
-7.88835e-06
-1.63582e-09
-1.14339e-05
-8.37243e-09
-1.39687e-05
-3.83492e-08
-1.63378e-05
-1.56233e-07
-1.90994e-05
-6.39878e-07
-1.84043e-05
-2.12064e-06
-1.43578e-05
-3.00122e-06
-1.00496e-05
-3.84317e-06
-6.56524e-06
-5.51548e-06
-5.57405e-06
-6.61277e-06
-6.14533e-06
-1.15255e-05
-5.94737e-06
-2.00062e-05
-2.16362e-05
-4.97588e-06
-1.58558e-10
0
-2.0821e-11
6.30437e-12
-2.04524e-11
5.02302e-12
-7.85419e-11
1.5719e-12
-2.15002e-10
3.45441e-12
-1.68457e-10
3.27632e-13
-3.33348e-13
5.6932e-13
-4.86942e-12
5.23216e-15
-4.0287e-11
-1.17731e-15
-3.09323e-10
-9.68229e-13
-1.9392e-09
-1.59426e-11
-1.03264e-08
-1.84413e-11
-4.88086e-08
0
-2.04863e-07
-1.43031e-09
-8.07534e-07
-4.71896e-08
-2.59828e-06
-3.9138e-07
-5.64725e-06
-1.52894e-06
-9.4134e-06
-1.11561e-05
-1.53396e-05
-1.9644e-05
-4.57243e-05
-1.91736e-05
-7.60308e-05
-1.40156e-05
-8.08954e-05
-7.7353e-07
-1.19242e-06
-4.30488e-07
3.99328e-11
0
-3.51716e-12
2.34662e-11
-1.78935e-12
6.69551e-12
-1.08361e-12
9.52322e-14
-1.08305e-12
1.45388e-14
-5.69005e-13
0
-1.8831e-14
1.21962e-14
-3.96559e-14
3.23888e-15
-6.1669e-13
5.45226e-13
-6.29323e-12
4.52101e-12
-3.24971e-11
6.95698e-12
-4.80356e-11
1.77364e-11
0
2.41175e-10
-4.45081e-09
1.42089e-09
-6.72042e-08
9.47003e-10
-4.82156e-07
-6.70889e-08
-3.28963e-06
-1.18653e-06
-5.42334e-05
-1.15498e-05
-5.96105e-05
-1.1442e-05
-6.83886e-05
-9.53045e-06
-3.53736e-06
-1.00123e-06
-3.12509e-06
-1.77491e-07
-4.49736e-07
-4.68061e-06
9.23962e-12
0
3.80464e-12
0
1.22456e-13
6.70249e-12
1.37074e-15
5.63893e-13
7.79888e-15
1.96793e-15
-7.58773e-18
8.48417e-16
-3.79059e-15
2.40308e-15
-6.48368e-14
6.36916e-14
-8.95387e-12
9.06044e-12
-9.90716e-12
1.49299e-11
-2.03786e-11
2.13012e-11
0
7.53057e-12
0
4.86851e-11
0
9.8133e-10
-1.2238e-08
1.07741e-08
-1.75121e-07
3.76641e-08
-9.43084e-06
-8.65465e-08
-2.92746e-05
-5.39714e-07
-2.63805e-05
-2.03718e-06
-1.47316e-05
-2.64454e-06
-1.19076e-05
-5.08063e-06
-6.84683e-06
-8.16712e-06
-9.12266e-06
-1.16766e-05
6.75765e-13
0
7.28209e-13
0
1.48998e-12
2.25213e-13
0
5.98531e-13
3.56186e-16
1.0613e-14
6.54973e-16
8.98413e-16
0
3.13171e-15
-2.608e-12
4.75978e-13
-1.75495e-11
1.31537e-11
-1.89603e-11
2.01306e-11
-3.21747e-12
1.41214e-11
-7.27743e-12
7.5357e-12
0
1.47741e-11
0
3.06314e-10
-3.00532e-08
4.44983e-09
-4.25344e-08
4.89654e-09
-3.21515e-08
0
-5.62086e-07
-1.08009e-08
-2.52277e-06
-8.26688e-08
-4.85438e-06
-3.12979e-07
-1.85356e-05
-2.16994e-06
-2.15804e-05
-1.12691e-05
-2.2833e-05
-4.36883e-05
2.16362e-14
4.87376e-15
4.70581e-14
2.24718e-15
6.37058e-14
2.42215e-15
4.88063e-14
2.18719e-14
4.48922e-16
1.04595e-14
1.63479e-16
8.55603e-16
0
2.34612e-15
-1.9505e-12
3.75072e-13
-1.6e-11
8.91732e-12
-1.47913e-11
2.27115e-11
-8.90391e-12
4.73594e-12
-1.12978e-11
8.02904e-12
0
2.03288e-11
-5.50978e-10
7.30511e-11
-2.72929e-09
0
-2.94918e-09
0
-2.06982e-09
0
-1.39202e-08
0
-9.76162e-08
0
-3.51768e-07
-2.46006e-08
-1.80653e-06
-4.41026e-07
-9.98505e-06
-3.18429e-06
-1.52691e-05
-7.25694e-05
4.00149e-16
4.06533e-15
2.04317e-15
2.27506e-15
2.48321e-15
1.60146e-15
1.81154e-15
1.13579e-15
1.6189e-16
8.59692e-16
1.40782e-17
8.62724e-16
0
2.44259e-15
-4.94477e-13
1.71137e-13
-6.25978e-12
0
-2.97195e-12
2.80794e-13
0
1.79074e-13
-2.25515e-12
9.1886e-12
-2.88205e-11
4.29816e-11
-4.82915e-11
0
-1.05067e-10
5.64537e-12
-1.27979e-10
0
-3.77962e-11
0
0
2.38461e-10
0
2.04493e-09
-3.49958e-08
6.89103e-09
-4.11226e-07
-1.32629e-07
-2.44547e-06
-1.94181e-06
-1.98171e-05
-6.26065e-05
1.95504e-17
1.01535e-15
1.29219e-16
4.91381e-16
1.36412e-16
4.21464e-16
6.38272e-17
1.49624e-16
1.97022e-17
3.00754e-16
-3.06526e-17
8.6789e-16
-7.08901e-15
4.14433e-15
-3.66872e-14
3.09095e-14
-1.26365e-13
7.0853e-15
-6.89061e-14
4.76807e-14
-6.06091e-13
3.20129e-13
-2.08112e-11
1.64303e-11
-2.23891e-11
3.51295e-11
-8.60524e-12
1.802e-12
-5.49626e-12
2.24086e-12
0
0
0
2.14246e-11
0
3.36707e-10
-2.53632e-09
3.7727e-09
-3.6025e-08
2.45042e-08
-3.01198e-07
-2.81895e-08
-2.01184e-06
-1.51407e-06
-2.091e-05
-0.000103293
1.94349e-18
1.96645e-16
7.58545e-18
5.17761e-17
8.06329e-18
4.34042e-17
3.31985e-18
2.34214e-17
6.03046e-19
2.00439e-16
-4.46676e-17
7.55745e-16
-1.20183e-15
1.74142e-15
-2.79652e-15
4.25551e-15
-6.60517e-15
9.10723e-15
-9.96285e-15
3.39003e-14
0
2.30776e-13
-1.1834e-11
7.11701e-12
-1.76543e-11
1.55719e-11
-2.96214e-12
8.56904e-13
-7.13044e-13
3.26257e-14
0
3.46683e-13
0
1.5209e-11
0
2.63103e-10
0
3.22008e-09
-1.00199e-08
2.55689e-08
-2.14775e-07
6.20104e-08
-2.23037e-06
-3.69507e-07
-5.26801e-06
-8.5682e-05
-4.66634e-20
2.50547e-17
2.53171e-19
4.06823e-18
3.3802e-19
3.47407e-18
1.43443e-19
5.4178e-18
-4.22896e-18
1.11446e-16
-3.12982e-17
4.45462e-16
-1.18531e-16
7.06557e-16
-5.33033e-16
1.31058e-15
-1.9162e-15
9.96641e-15
0
4.21035e-14
-4.23188e-13
2.89237e-13
-1.893e-12
0
-6.69668e-13
4.53632e-14
-1.45323e-13
0
0
5.99262e-14
0
3.83879e-13
0
7.34655e-12
0
1.32922e-10
0
1.5675e-09
0
1.06459e-08
0
2.08452e-08
-2.66554e-07
-6.69089e-08
-1.05655e-06
-3.2664e-06
-1.22647e-20
2.61753e-18
2.41594e-21
3.16362e-19
9.15349e-21
3.00661e-19
-4.11861e-20
1.59151e-18
-2.73481e-18
3.59974e-17
-1.29432e-17
1.5325e-16
-3.41048e-17
2.97397e-16
-2.08965e-16
6.98246e-16
-2.67369e-15
1.00057e-14
-2.64727e-14
6.76246e-14
-4.77901e-14
1.72412e-13
-7.02846e-14
3.78913e-14
-2.73759e-14
0
-1.33708e-14
6.7858e-15
0
1.94274e-14
0
1.71345e-13
0
2.83606e-12
0
4.32191e-11
0
4.98401e-10
0
3.61105e-09
-1.21815e-07
2.57868e-08
-1.04078e-06
8.99574e-08
-2.54445e-07
-3.68926e-07
-1.0418e-21
2.86443e-19
-4.11027e-22
2.58482e-20
-1.6188e-23
2.81539e-20
-2.59098e-20
4.17479e-19
-6.17031e-19
6.89072e-18
-3.22541e-18
3.26778e-17
-9.91687e-18
1.02316e-16
-9.40444e-17
3.84301e-16
-2.4039e-15
7.50193e-15
-1.81142e-14
6.85496e-14
-2.27986e-14
1.43517e-13
-9.82952e-15
1.07434e-13
-2.43641e-15
1.94586e-14
-2.52242e-15
6.65594e-15
-5.48223e-16
6.54626e-15
0
5.50532e-14
0
7.55549e-13
0
1.02265e-11
0
1.30857e-10
0
1.91953e-09
-2.5818e-08
2.51392e-08
-7.07504e-07
1.41154e-07
4.5529e-08
-1.49029e-08
-5.51607e-23
3.20181e-20
-3.09113e-23
2.12255e-21
-8.27622e-24
2.81648e-21
-2.97771e-21
8.37903e-20
-6.31076e-20
1.05927e-18
-4.83033e-19
5.63057e-18
-2.1902e-18
2.98229e-17
-2.90839e-17
1.74826e-16
-1.30046e-15
3.49544e-15
-8.64069e-15
4.32879e-14
-1.12918e-14
9.59012e-14
-4.27237e-15
9.34724e-14
-9.46177e-16
2.04037e-14
-6.31111e-16
5.09038e-15
-6.61421e-16
2.93443e-15
0
1.65693e-14
0
2.11744e-13
0
3.33209e-12
0
6.16207e-11
0
1.32297e-09
0
2.30156e-08
-5.43782e-07
1.43413e-07
2.73764e-07
-1.04549e-07
-1.39577e-24
3.54103e-21
8.53369e-25
1.72929e-22
5.44518e-24
3.03452e-22
1.70991e-22
1.34948e-20
-6.80279e-22
1.60546e-19
-2.95478e-20
9.43065e-19
-2.8193e-19
8.27284e-18
-4.78038e-18
7.08685e-17
-2.73739e-16
9.89419e-16
-2.03846e-15
1.308e-14
-2.66599e-15
3.3549e-14
-1.32063e-15
3.78443e-14
-3.44182e-16
1.31634e-14
-1.03438e-16
3.72498e-15
-1.06367e-16
1.19423e-15
0
5.22345e-15
0
7.85443e-14
5.34741e-14
1.32884e-12
2.77035e-11
2.76108e-11
1.04807e-09
5.9543e-10
6.03049e-09
1.21161e-08
-7.77253e-08
1.3898e-08
1.59001e-07
-7.25694e-07
2.95735e-24
3.86457e-22
4.6263e-25
1.41198e-23
1.96904e-24
3.44938e-23
1.31043e-22
1.88445e-21
1.62072e-21
2.33322e-20
8.95699e-21
1.5212e-19
7.65711e-20
2.34135e-18
5.89489e-19
3.10765e-17
4.66296e-18
2.33868e-16
3.27527e-17
1.89449e-15
6.4132e-17
5.40388e-15
1.13685e-16
7.0567e-15
5.50366e-17
4.62361e-15
3.20547e-17
2.26647e-15
3.07286e-17
3.88374e-16
5.94326e-16
1.5483e-15
3.56315e-14
2.40772e-14
1.04725e-12
2.3423e-13
3.63278e-11
3.9553e-12
5.63956e-10
1.1575e-10
3.75854e-09
6.76846e-10
1.27207e-08
2.81622e-09
8.81584e-09
-5.80198e-10
8.56563e-25
4.16192e-23
7.45931e-26
1.17428e-24
4.40327e-25
3.93895e-24
3.50258e-23
2.34558e-22
5.05565e-22
3.0421e-21
3.92202e-21
2.29592e-20
8.1108e-20
6.54e-19
1.29419e-18
1.3245e-17
8.95309e-18
6.08812e-17
5.45843e-17
2.05336e-16
1.36483e-16
5.6254e-16
1.82491e-16
7.94045e-16
1.28828e-16
8.1456e-16
8.60232e-17
8.32645e-16
2.73084e-17
1.06257e-16
2.4854e-16
3.22149e-16
7.61688e-15
5.41247e-15
1.75664e-13
2.13395e-14
3.88054e-12
5.51314e-13
7.61187e-11
9.00869e-12
5.65785e-10
9.64518e-11
2.80407e-09
5.19049e-10
1.86395e-09
1.02209e-08
1.45835e-25
4.41942e-24
9.33359e-27
1.00259e-25
7.7429e-26
4.33639e-25
6.53371e-24
2.64084e-23
1.01558e-22
3.53886e-22
9.81507e-22
3.27314e-21
3.73122e-20
1.52106e-19
8.28283e-19
3.95044e-18
3.82857e-18
1.43143e-17
1.22345e-17
2.63255e-17
3.1391e-17
6.42134e-17
4.23265e-17
9.128e-17
4.61096e-17
9.40689e-17
6.10052e-17
1.45265e-16
1.20316e-17
2.55331e-17
5.68361e-17
4.44537e-17
1.20775e-15
7.60015e-16
2.15459e-14
2.47037e-15
5.233e-13
4.39299e-14
8.8432e-12
8.62574e-13
9.46963e-11
8.68116e-12
5.54329e-10
4.78622e-11
1.96068e-10
2.06803e-09
2.08068e-26
4.62243e-25
1.06219e-27
8.83207e-27
1.14968e-26
4.53126e-26
9.8284e-25
2.75745e-24
1.60709e-23
3.78019e-23
1.94344e-22
4.35642e-22
1.08192e-20
2.48308e-20
2.74024e-19
6.43102e-19
1.04346e-18
2.39282e-18
2.37423e-18
4.29194e-18
5.94035e-18
9.81024e-18
7.99735e-18
1.3644e-17
8.50947e-18
1.12322e-17
1.32262e-17
1.5334e-17
3.40843e-18
4.37754e-18
8.7176e-18
5.0955e-18
2.24668e-16
7.99584e-17
1.65715e-15
5.82989e-16
4.55486e-14
2.09878e-15
8.4666e-13
4.87498e-14
9.55919e-12
5.62035e-13
5.84376e-11
2.42882e-12
8.40913e-12
2.52507e-10
2.70009e-27
4.75675e-26
1.15726e-28
8.03985e-28
1.49828e-27
4.48498e-27
1.28052e-25
2.73256e-25
2.16888e-24
3.80347e-24
3.2166e-23
5.21741e-23
2.03495e-21
2.84987e-21
5.03571e-20
6.34706e-20
2.08885e-19
2.89891e-19
5.1456e-19
7.62198e-19
1.23535e-18
1.83504e-18
1.63632e-18
2.50322e-18
1.43374e-18
1.59301e-18
1.94729e-18
1.58176e-18
6.84792e-19
6.04566e-19
1.08211e-18
5.73628e-19
3.03576e-17
7.47135e-18
2.68542e-16
9.22427e-17
2.05177e-15
3.27887e-16
5.26511e-14
2.53097e-15
6.31951e-13
3.34218e-14
3.84507e-12
1.25519e-13
3.14135e-13
1.78916e-11
3.27716e-28
4.81013e-27
1.2401e-29
7.5312e-29
1.74785e-28
4.20912e-28
1.50488e-26
2.59849e-26
2.60848e-25
3.65234e-25
4.50315e-24
5.58071e-24
2.78452e-22
2.75997e-22
6.45409e-21
5.58547e-21
3.29436e-20
3.11357e-20
1.08304e-19
1.1945e-19
2.65481e-19
3.21783e-19
3.47756e-19
4.45664e-19
2.25826e-19
2.44084e-19
2.38141e-19
1.8116e-19
1.05142e-19
7.32049e-20
1.29949e-19
6.28307e-20
3.35046e-18
6.43846e-19
4.07525e-17
8.21675e-18
2.41467e-16
6.02326e-17
3.07496e-15
3.07652e-16
4.12129e-14
1.97971e-15
2.23659e-13
4.4102e-15
8.05919e-16
8.20961e-13
3.7759e-29
4.7741e-28
1.31764e-30
7.19779e-30
1.85781e-29
3.76515e-29
1.63196e-27
2.37884e-27
2.87139e-26
3.36683e-26
5.49055e-25
5.50002e-25
3.2523e-23
2.61414e-23
7.32661e-22
5.23197e-22
4.4215e-21
3.26224e-21
1.82864e-20
1.45004e-20
4.75372e-20
4.17824e-20
6.27081e-20
6.08128e-20
3.27322e-20
3.43027e-20
2.62885e-20
2.09541e-20
1.33174e-20
8.28193e-21
1.54378e-20
6.47694e-21
3.19793e-19
5.1042e-20
4.18161e-18
5.91261e-19
3.66179e-17
5.93328e-18
2.7679e-16
3.59516e-17
2.90043e-15
2.28558e-16
1.25542e-14
6.77397e-16
8.98409e-16
4.31465e-14
4.16028e-30
4.64564e-29
1.38954e-31
6.94234e-31
1.82643e-30
3.23788e-30
1.65469e-28
2.10002e-28
2.9411e-27
2.98797e-27
6.04803e-26
5.14274e-26
3.52474e-24
2.45418e-24
7.91158e-23
4.9377e-23
5.26232e-22
3.23603e-22
2.36445e-21
1.41567e-21
6.39927e-21
4.0709e-21
8.6128e-21
6.2392e-21
4.53457e-21
4.03141e-21
2.99018e-21
2.29474e-21
1.54165e-21
9.10691e-22
1.72481e-21
6.28718e-22
2.7078e-20
3.73753e-21
3.5378e-19
4.10838e-20
3.43617e-18
3.61575e-19
2.74887e-17
2.70512e-18
2.22182e-16
1.60791e-17
9.24272e-16
6.86293e-17
1.36269e-16
2.53574e-15
4.40639e-31
4.42792e-30
1.44766e-32
6.68736e-32
1.68291e-31
2.69362e-31
1.58253e-29
1.79102e-29
2.83207e-28
2.55748e-28
6.16115e-27
4.59877e-27
3.58809e-25
2.21358e-25
8.03319e-24
4.43286e-24
5.609e-23
2.96669e-23
2.52979e-22
1.25375e-22
6.94625e-22
3.54487e-22
9.545e-22
5.61582e-22
5.6775e-22
4.07962e-22
3.36273e-22
2.33247e-22
1.66995e-22
9.61622e-23
1.76434e-22
5.65767e-23
2.07048e-21
2.5597e-22
2.66172e-20
2.67972e-21
2.47512e-19
2.11404e-20
2.11045e-18
1.62957e-19
1.43696e-17
9.49269e-19
6.08086e-17
3.81407e-18
1.0939e-17
1.67134e-16
4.50223e-32
4.13026e-31
1.48192e-33
6.37962e-33
1.46561e-32
2.17263e-32
1.43705e-30
1.47819e-30
2.58086e-29
2.11463e-29
5.86471e-28
3.93219e-28
3.41405e-26
1.89308e-26
7.59031e-25
3.75226e-25
5.43824e-24
2.54319e-24
2.44047e-23
1.06913e-23
6.74859e-23
3.01125e-23
9.41654e-23
4.86594e-23
6.2907e-23
3.75258e-23
3.56684e-23
2.18293e-23
1.69662e-23
9.37104e-24
1.65511e-23
4.75499e-24
1.45065e-22
1.65976e-23
1.81186e-21
1.6219e-22
1.63375e-20
1.25993e-21
1.43516e-19
1.1073e-20
1.08285e-18
1.03072e-19
5.19878e-18
5.7824e-19
2.45801e-18
1.96348e-17
4.45122e-33
3.7673e-32
1.48245e-34
5.99568e-34
1.2104e-33
1.70037e-33
1.24419e-31
1.1824e-31
2.23709e-30
1.69187e-30
5.25021e-29
3.22406e-29
3.04276e-27
1.54326e-27
6.70177e-26
3.02588e-26
4.88406e-25
2.07232e-25
2.19443e-24
8.75805e-25
6.10202e-24
2.46627e-24
8.60208e-24
4.038e-24
6.21313e-24
3.20517e-24
3.4658e-24
1.88156e-24
1.60031e-24
8.26076e-25
1.43753e-24
3.7666e-25
9.42612e-24
1.03031e-24
1.13322e-22
9.27493e-24
1.03894e-21
7.67482e-23
1.24949e-20
1.28718e-21
1.62957e-19
2.53319e-20
1.1862e-18
2.13062e-19
1.03647e-18
5.82377e-18
4.27417e-34
3.35732e-33
1.44438e-35
5.54226e-35
9.4912e-35
1.29259e-34
1.03105e-32
9.17932e-33
1.85222e-31
1.31197e-31
4.45122e-30
2.54651e-30
2.56012e-28
1.20941e-28
5.57973e-27
2.34513e-27
4.11186e-26
1.617e-26
1.84889e-25
6.83875e-26
5.14951e-25
1.9173e-25
7.30471e-25
3.16196e-25
5.55346e-25
2.55562e-25
3.06827e-25
1.50463e-25
1.38536e-25
6.65121e-26
1.1592e-25
2.80678e-26
5.75346e-25
6.20107e-26
6.68043e-24
5.19948e-25
6.93811e-23
5.54354e-24
1.77503e-21
2.31408e-22
4.55398e-20
8.01083e-21
4.58691e-19
8.77365e-20
4.54948e-19
2.44689e-18
4.00764e-35
2.92005e-34
1.37027e-36
5.04619e-36
7.05598e-36
9.55884e-36
8.19726e-34
6.92595e-34
1.4695e-32
9.87598e-33
3.59387e-31
1.94441e-31
2.0478e-29
9.15465e-30
4.41123e-28
1.75396e-28
3.26903e-27
1.21195e-27
1.46503e-26
5.10195e-27
4.06643e-26
1.41808e-26
5.78193e-26
2.3412e-26
4.54887e-26
1.91413e-26
2.49051e-26
1.12597e-26
1.10082e-26
4.96614e-27
8.69033e-27
1.96995e-27
3.36145e-26
3.7014e-27
3.9023e-25
3.11942e-26
5.64094e-24
5.48554e-25
3.05095e-22
4.03659e-23
1.20526e-20
1.842e-21
1.55365e-19
2.49025e-20
1.48005e-19
9.20879e-19
3.68347e-36
2.47504e-35
1.26931e-37
4.52997e-37
4.95309e-37
6.88959e-37
6.26523e-35
5.08577e-35
1.11961e-33
7.2275e-34
2.77455e-32
1.4387e-32
1.56457e-30
6.70951e-31
3.32692e-29
1.26886e-29
2.46725e-28
8.75204e-29
1.09786e-27
3.65531e-28
3.02323e-27
1.0042e-27
4.29263e-27
1.65014e-27
3.44864e-27
1.35592e-27
1.86826e-27
7.9376e-28
8.07696e-28
3.46892e-28
6.08754e-28
1.31209e-28
1.95835e-27
2.31513e-28
2.51275e-26
2.36564e-27
5.93887e-25
6.78241e-26
4.65159e-23
5.45109e-24
2.33368e-21
2.7963e-22
3.71189e-20
4.51507e-21
3.25484e-20
2.57664e-19
3.31038e-37
2.04077e-36
1.1508e-38
3.99789e-38
3.26271e-38
4.85131e-38
4.61081e-36
3.63961e-36
8.20501e-35
5.15067e-35
2.05335e-33
1.03399e-33
1.1449e-31
4.77262e-32
2.40072e-30
8.90119e-31
1.77494e-29
6.11002e-30
7.81914e-29
2.52536e-29
2.12768e-28
6.83892e-29
3.00653e-28
1.11255e-28
2.43852e-28
9.13351e-29
1.30352e-28
5.29696e-29
5.50826e-29
2.2775e-29
4.02196e-29
8.39955e-30
1.25426e-28
1.69215e-29
2.0881e-27
2.5164e-28
7.02689e-26
8.38827e-27
5.8516e-24
5.84985e-25
3.4091e-22
3.3603e-23
6.44048e-21
6.35879e-22
5.35243e-21
5.27646e-20
2.89114e-38
1.63393e-37
1.01678e-39
3.45179e-39
2.00032e-39
3.34679e-39
3.26924e-37
2.54308e-37
5.78645e-36
3.58174e-36
1.45854e-34
7.2381e-35
8.0363e-33
3.30492e-33
1.66033e-31
6.07437e-32
1.22008e-30
4.13852e-31
5.30754e-30
1.68859e-30
1.422e-29
4.49529e-30
1.99364e-29
7.2021e-30
1.61635e-29
5.87537e-30
8.49424e-30
3.35925e-30
3.51289e-30
1.41039e-30
2.53972e-30
5.25655e-31
1.01355e-29
1.56816e-30
2.27179e-28
3.23702e-29
7.95129e-27
9.17679e-28
5.94445e-25
4.97029e-26
4.12187e-23
3.45839e-24
9.44735e-22
8.33558e-23
7.62683e-22
8.64688e-21
2.44218e-39
1.26808e-38
8.13676e-41
2.90622e-40
1.20298e-40
2.26758e-40
2.23221e-38
1.73908e-38
3.9251e-37
2.43668e-37
9.94433e-36
4.95122e-36
5.41196e-34
2.23608e-34
1.1008e-32
4.04778e-33
8.0187e-32
2.73061e-32
3.43615e-31
1.0972e-31
9.03142e-31
2.86306e-31
1.25263e-30
4.4935e-31
1.00582e-30
3.62306e-31
5.17299e-31
2.03115e-31
2.10509e-31
8.26425e-32
1.5529e-31
3.26226e-32
1.0173e-30
1.67406e-31
2.68677e-29
4.0158e-30
8.12384e-28
9.24168e-29
4.71999e-26
3.42456e-27
3.9897e-24
2.7953e-25
1.22023e-22
9.72724e-24
9.82131e-23
1.21538e-21
1.98967e-40
9.52503e-40
5.63734e-42
2.3815e-41
7.68904e-42
1.51269e-41
1.46617e-39
1.16748e-39
2.55737e-38
1.62686e-38
6.50117e-37
3.32225e-37
3.49339e-35
1.48436e-35
6.98985e-34
2.64525e-34
5.03436e-33
1.76302e-33
2.11957e-32
6.9602e-33
5.44294e-32
1.77487e-32
7.44478e-32
2.71371e-32
5.86426e-32
2.14999e-32
2.93526e-32
1.17455e-32
1.18796e-32
4.59719e-33
9.22781e-33
2.01869e-33
1.04772e-31
1.72225e-32
2.9851e-30
4.49198e-31
8.02212e-29
1.0147e-29
3.24645e-27
2.58112e-28
3.01386e-25
1.9523e-26
1.33315e-23
9.87304e-25
1.16606e-23
1.51015e-22
1.55734e-41
6.91604e-41
3.7299e-43
1.8922e-42
4.86231e-43
9.98574e-43
9.25575e-41
7.72106e-41
1.59791e-39
1.06992e-39
4.06939e-38
2.19575e-38
2.15816e-36
9.71016e-37
4.24372e-35
1.70309e-35
3.01393e-34
1.1193e-34
1.24313e-33
4.33219e-34
3.10461e-33
1.07625e-33
4.17359e-33
1.59428e-33
3.19129e-33
1.23331e-33
1.54401e-33
6.52151e-34
6.3304e-34
2.43717e-34
5.31503e-34
1.26064e-34
9.86422e-33
1.64738e-33
3.09732e-31
4.98021e-32
8.82207e-30
1.38646e-30
2.68068e-28
3.11038e-29
2.19694e-26
1.7854e-27
1.31211e-24
1.03941e-25
1.37921e-24
1.72903e-23
1.16156e-42
4.85188e-42
2.41491e-44
1.44962e-43
2.98191e-44
6.54862e-44
5.61554e-42
5.05017e-42
9.56508e-41
6.95874e-41
2.4361e-39
1.43536e-39
1.27433e-37
6.28613e-38
2.45991e-36
1.08492e-36
1.71812e-35
7.01974e-36
6.92111e-35
2.65853e-35
1.67254e-34
6.41571e-35
2.20236e-34
9.16229e-35
1.61614e-34
6.87589e-35
7.50082e-35
3.49573e-35
3.24311e-35
1.23814e-35
3.00936e-35
8.25361e-36
8.7163e-34
1.60014e-34
3.21995e-32
5.9531e-33
1.12598e-30
2.16286e-31
3.22403e-29
5.35772e-30
2.11523e-27
2.47852e-28
1.34901e-25
1.28479e-26
1.68122e-25
1.90352e-24
8.16658e-44
3.29153e-43
1.52498e-45
1.06531e-44
1.77399e-45
4.27905e-45
3.27655e-43
3.27998e-43
5.48378e-42
4.49383e-42
1.3941e-40
9.31508e-41
7.18781e-39
4.04166e-39
1.36031e-37
6.86294e-38
9.31887e-37
4.36598e-37
3.65509e-36
1.61528e-36
8.50431e-36
3.77695e-36
1.09384e-35
5.17993e-36
7.61519e-36
3.74783e-36
3.36501e-36
1.82131e-36
1.68497e-36
6.08654e-37
1.72967e-36
5.77554e-37
7.53061e-35
1.57775e-35
3.34363e-33
7.02294e-34
1.43344e-31
3.02675e-32
4.47378e-30
8.83456e-31
2.5028e-28
3.69324e-29
1.42918e-26
1.57973e-27
1.90808e-26
1.95095e-25
5.38761e-45
2.16448e-44
9.34186e-47
7.4993e-46
1.02235e-46
2.79599e-46
1.83819e-44
2.12295e-44
3.00982e-43
2.89184e-43
7.62275e-42
6.01985e-42
3.86863e-40
2.58824e-40
7.16916e-39
4.32298e-39
4.8059e-38
2.70108e-38
1.83036e-37
9.74923e-38
4.08198e-37
2.20425e-37
5.11978e-37
2.8956e-37
3.34537e-37
2.00882e-37
1.39985e-37
9.2897e-38
8.25817e-38
2.94119e-38
1.09263e-37
4.01719e-38
5.92364e-36
1.36788e-36
3.01487e-34
6.65211e-35
1.45365e-32
3.00576e-33
5.13285e-31
1.01079e-31
2.61172e-29
4.0186e-30
1.28496e-27
1.48041e-28
1.74143e-27
1.68723e-26
3.31939e-46
1.3852e-45
5.4982e-48
5.05174e-47
5.67684e-48
1.81655e-47
9.8811e-46
1.37328e-45
1.57641e-44
1.85981e-44
3.96723e-43
3.88337e-43
1.97951e-41
1.65449e-41
3.58715e-40
2.71715e-40
2.34843e-39
1.66609e-39
8.66658e-39
5.86117e-39
1.8458e-38
1.27962e-38
2.25657e-38
1.6081e-38
1.37103e-38
1.06452e-38
5.42107e-39
4.67114e-39
3.31426e-39
1.40355e-39
6.75782e-39
2.51417e-39
3.72658e-37
9.23216e-38
2.00589e-35
4.43657e-36
9.96234e-34
1.92946e-34
3.89901e-32
7.00378e-33
1.85551e-30
2.6606e-31
8.22315e-29
9.29486e-30
1.1824e-28
1.11963e-27
1.87531e-47
8.68574e-47
3.00961e-49
3.08244e-48
2.95299e-49
1.34336e-48
5.03445e-47
8.90812e-47
7.79629e-46
1.1995e-45
1.94474e-44
2.50855e-44
9.52464e-43
1.05889e-42
1.68585e-41
1.70906e-41
1.07638e-40
1.02339e-40
3.84368e-40
3.47277e-40