/*--------------------------------*- C++ -*----------------------------------*\
  =========                 |
  \\      /  F ield         | OpenFOAM: The Open Source CFD Toolbox
   \\    /   O peration     | Website:  https://openfoam.org
    \\  /    A nd           | Version:  13
     \\/     M anipulation  |
\*---------------------------------------------------------------------------*/
FoamFile
{
    format      ascii;
    class       volScalarField;
    location    "0.7";
    object      alpha.water;
}
// * * * * * * * * * * * * * * * * * * * * * * * * * * * * * * * * * * * * * //

dimensions      [];

internalField   nonuniform List<scalar> 
2268
(
1
1
1
1
1
1
1
1
1
1
1
1
1
1
1
0.999999
0.997214
0.960363
0.946921
0.99024
0.998054
0.998057
0.998014
1
1
1
1
1
1
1
1
1
1
1
1
1
1
1
0.999998
0.99985
0.98107
0.946803
0.946517
0.98126
0.978785
0.995652
1
1
1
1
1
1
1
1
1
1
1
1
1
1
1
1
0.999999
0.999821
0.977762
0.943386
0.943386
0.943386
0.994201
1
1
1
1
1
1
1
1
1
1
1
1
1
1
1
1
1
1
0.999997
0.983321
0.94406
0.969397
0.998204
1
1
1
1
1
1
1
1
1
1
1
1
1
1
1
1
1
1
1
1
0.98505
1
0.999998
1
1
1
1
1
1
0.999997
0.999991
0.999983
0.999996
1
1
1
1
1
1
1
1
1
1
1
1
0.999994
1
1
1
1
1
0.999997
0.999528
0.999375
0.999782
0.999973
0.999998
1
1
1
1
1
1
1
1
1
1
1
0.999948
0.97426
0.93585
0.903621
0.874891
0.864642
0.872991
0.917015
0.983157
0.999998
0.999998
0.999998
0.999998
0.999997
0.999999
1
1
1
1
1
1
1
1
0.999948
0.928695
0.999932
0.999937
0.999949
0.998783
0.865138
0.716123
0.651571
0.716678
0.895093
0.895096
0.895091
0.895046
0.894766
0.894312
0.895974
0.896836
0.89686
0.820249
0.948357
0.999938
0.999951
0.999969
0.999968
0.999969
0.999969
0.70469
0.889645
0.895094
0.895091
0.827242
0.777144
0.808255
0.839892
0.873175
0.900453
0.903963
0.903957
0.999567
0.999937
0.999342
0.999235
0.999969
0.999969
0.955775
0.924483
0.921086
0.803641
0.261112
0.110394
0.0955231
0.129246
0.184972
0.331506
0.598586
0.903596
0.903977
0.998583
0.976863
0.953299
0.996265
0.999968
0.999969
0.902657
0.921086
0.786904
0.145922
0.00198786
0.000256783
0.000185533
0.000255699
0.000641494
0.00263744
0.0460297
0.598949
0.903947
0.649033
0.581418
0.869392
0.998859
0.999962
0.999968
0.922147
0.910666
0.543811
0.00201084
0.00024948
0.000140111
0.000150095
0.000171145
0.0002572
0.000652411
0.00289389
0.202328
0.903482
0.50702
0.536622
0.905922
0.998603
0.999937
0.999962
0.9799
0.836991
0.136737
0.000472505
0.000141286
0.000129191
0.000139149
0.000149857
0.000176223
0.000291221
0.000789202
0.101031
0.900065
0.508706
0.784667
0.980131
0.992998
0.977005
0.997463
0.997062
0.748407
0.00111213
0.000174539
0.000125552
0.000126862
0.000129226
0.000143253
0.00025627
0.000778326
0.00178028
0.0548495
0.820133
0.836074
0.977719
0.977979
0.916791
0.781489
0.994384
0.987824
0.612686
0.000353227
0.000125862
0.000116376
0.000121648
0.000126875
0.00017721
0.000678353
0.0013288
0.00214268
0.0236228
0.366108
0.277251
0.270069
0.270047
0.287529
0.343445
0.458501
0.615323
0.776312
0.902666
0.980476
1
1
1
1
1
1
0.999999
1
1
1
1
1
0.999961
0.000607387
0.0155762
0.0349784
0.0575075
0.0803978
0.0982997
0.122966
0.187739
0.305786
0.464303
0.635077
0.773631
0.857349
0.914193
0.982405
0.997583
0.999944
0.99999
0.999991
0.999948
0.999955
0.999982
0.999951
6.44162e-05
3.42004e-07
9.15546e-08
1.92056e-07
7.60584e-07
6.25583e-05
6.37911e-06
2.59534e-05
1.03301e-05
0.00480463
0.0499635
0.119286
0.197282
0.266402
0.353674
0.488464
0.590806
0.615972
0.653468
0.766988
0.881243
0.939507
0.96967
5.3308e-06
9.49121e-08
7.93857e-08
1.7187e-07
7.44409e-07
2.20854e-07
4.24082e-09
4.96563e-10
9.72268e-10
1.23923e-08
1.11734e-07
7.33847e-07
4.03283e-06
1.97822e-05
9.0242e-05
0.000400878
0.00717392
0.0540223
0.126731
0.305491
0.579862
0.710247
0.427028
6.3406e-07
6.01179e-07
7.81612e-08
1.22412e-08
1.60852e-08
1.32139e-09
2.75668e-10
4.64989e-10
4.83334e-10
9.35898e-10
1.14899e-08
2.81932e-07
3.30184e-06
1.95359e-05
9.63339e-05
0.000511488
0.0046179
0.125377
0.261515
0.270923
0.130201
0.0102833
0.00947661
6.69512e-08
1.94151e-07
1.04997e-07
9.44963e-09
4.38766e-10
1.2322e-10
1.25802e-10
2.73209e-10
1.35782e-07
3.85268e-07
2.63458e-07
2.13965e-07
9.86682e-07
6.67416e-06
5.94904e-05
0.000378382
0.0104843
0.088788
0.110151
0.0577106
0.0415349
0.0392271
0.0497327
7.78491e-09
4.89397e-09
4.63824e-08
1.03814e-08
1.42664e-10
1.88139e-11
7.33571e-11
9.8807e-09
3.52735e-07
4.50531e-07
4.35487e-07
1.01584e-07
2.62852e-07
5.63261e-06
0.000126735
0.000405312
0.000262735
4.03162e-05
0.000232862
0.00131985
0.106027
0.292957
0.360288
8.72239e-10
4.26288e-10
4.80374e-10
2.24302e-09
2.0026e-10
1.44902e-11
2.36044e-11
6.76325e-09
3.28364e-07
4.50531e-07
2.9712e-07
8.98012e-08
1.32634e-07
3.69665e-06
2.35838e-05
3.96759e-05
2.80723e-05
1.12006e-05
4.04156e-05
0.000295778
0.00133854
0.0266924
0.273002
1.0225e-10
4.63741e-11
2.21011e-11
8.11393e-11
3.74835e-11
1.26277e-11
1.60758e-11
3.79196e-09
1.16175e-07
2.22549e-07
2.9333e-08
8.27829e-08
5.07752e-07
7.83247e-07
3.17569e-07
4.93043e-07
1.32237e-06
5.34666e-06
1.99051e-05
9.94505e-05
0.000522305
0.00249243
0.0745346
2.23721e-11
1.41477e-11
9.97164e-12
5.71056e-12
6.07149e-12
1.17922e-11
5.33059e-11
1.2575e-09
7.55248e-10
1.14933e-09
5.59235e-09
2.25497e-07
5.17722e-07
3.45037e-07
7.58197e-09
7.25581e-08
3.72823e-07
1.28982e-06
8.30608e-06
7.09958e-05
0.000532347
0.00335153
0.133748
5.38639e-12
2.41641e-12
1.8653e-12
7.74295e-13
3.37777e-12
1.03684e-11
3.14416e-11
1.79786e-10
1.29801e-10
4.07996e-10
1.33415e-09
1.77002e-07
4.76069e-07
1.32218e-07
1.86153e-09
1.47184e-08
9.03966e-08
7.28479e-07
6.42816e-06
5.18034e-05
0.000438557
0.00300148
0.118281
8.43967e-13
2.23639e-13
1.69501e-13
1.52595e-13
1.96335e-12
7.14058e-12
1.37586e-11
3.02454e-11
1.13279e-10
4.37421e-10
3.52453e-09
3.74851e-08
5.5859e-08
3.06701e-09
1.20114e-09
4.04362e-09
4.58543e-08
6.99579e-07
8.17056e-06
7.48063e-05
0.000360805
0.00132253
0.00282624
9.18507e-14
1.69854e-14
1.38576e-14
4.16273e-14
8.10621e-13
3.23989e-12
5.90095e-12
1.21477e-11
1.15424e-10
7.23689e-10
2.38676e-09
1.46235e-09
5.17419e-10
1.79749e-10
3.18738e-10
1.67637e-09
2.44256e-08
4.01104e-07
4.80012e-06
3.8536e-05
0.000205442
0.00291345
0.00331021
9.56225e-15
1.33312e-15
1.24032e-15
1.14448e-14
2.07187e-13
9.13375e-13
2.21062e-12
6.2955e-12
9.59996e-11
7.47074e-10
1.83822e-09
1.22164e-09
1.6755e-10
6.80842e-11
8.36532e-11
6.35706e-10
9.62428e-09
1.37058e-07
1.50634e-06
9.1128e-06
7.35114e-05
0.00241623
0.00382169
1.03854e-15
1.07952e-16
1.21113e-16
2.60878e-15
3.69214e-14
1.82136e-13
6.97166e-13
3.0257e-12
5.64338e-11
5.80576e-10
1.32683e-09
1.08696e-09
2.04162e-10
5.18019e-11
3.66438e-11
2.12686e-10
2.92491e-09
4.26829e-08
5.48053e-07
6.72746e-06
7.58972e-05
0.00175691
0.00400059
1.13818e-16
8.7504e-18
1.29048e-17
4.75738e-16
5.81733e-15
3.18901e-14
1.99211e-13
1.27788e-12
2.11161e-11
2.62802e-10
6.33822e-10
6.09882e-10
1.56385e-10
3.88981e-11
1.62799e-11
7.24563e-11
1.07345e-09
1.87933e-08
2.9624e-07
4.20172e-06
7.33397e-05
0.000511384
0.00334081
1.24e-17
7.09385e-19
1.47582e-18
7.26651e-17
8.78222e-16
5.31585e-15
5.62043e-14
5.51075e-13
5.63857e-12
5.91004e-11
1.57286e-10
1.77098e-10
7.52752e-11
2.62787e-11
6.01744e-12
2.42825e-11
3.52511e-10
5.12961e-09
7.10874e-08
1.86129e-06
1.99646e-05
1.14256e-05
0.000271301
1.33978e-18
5.87035e-20
1.72489e-19
9.67855e-18
1.21389e-16
8.32039e-16
1.61641e-14
2.47261e-13
1.48218e-12
7.59579e-12
2.06687e-11
2.66833e-11
2.00401e-11
1.28542e-11
1.83074e-12
6.29853e-12
9.61436e-11
7.04229e-10
2.08615e-09
6.50828e-08
3.01992e-07
1.52648e-06
5.24332e-06
1.43385e-19
5.01649e-21
1.96262e-20
1.14646e-18
1.49334e-17
1.23063e-16
4.25081e-15
9.0936e-14
3.83872e-13
8.94407e-13
2.19434e-12
2.99803e-12
2.99089e-12
3.48954e-12
5.14215e-13
1.10212e-12
1.76562e-11
2.02183e-11
1.57602e-10
1.97241e-09
2.81973e-08
1.82513e-07
8.81649e-07
1.51786e-20
4.44582e-22
2.12406e-21
1.23806e-19
1.66047e-18
1.72336e-17
8.5711e-16
2.1062e-14
7.8312e-14
1.34534e-13
2.96419e-13
4.01583e-13
3.58015e-13
5.03263e-13
1.08601e-13
1.42629e-13
2.18663e-12
8.15032e-12
1.83894e-11
2.15129e-10
2.77208e-09
1.78727e-08
6.39853e-08
1.58708e-21
4.0893e-23
2.17635e-22
1.25591e-20
1.71887e-19
2.20794e-18
1.20401e-16
2.78235e-15
1.13788e-14
2.42542e-14
5.43715e-14
7.20171e-14
4.90311e-14
5.40801e-14
1.77589e-14
1.70937e-14
2.20668e-13
2.218e-12
4.41121e-12
2.07962e-11
3.19687e-10
1.68474e-09
5.04009e-09
1.63663e-22
3.88587e-24
2.11123e-23
1.22109e-21
1.69251e-20
2.51835e-19
1.27742e-17
2.60384e-16
1.3227e-15
4.23793e-15
1.05708e-14
1.40881e-14
7.85249e-15
6.25177e-15
2.4302e-15
2.04448e-15
2.04705e-14
2.85377e-13
1.34758e-12
3.89046e-12
3.38236e-11
1.62511e-10
5.55945e-10
1.66201e-23
3.78215e-25
1.94664e-24
1.14645e-22
1.60242e-21
2.59996e-20
1.23028e-18
2.39709e-17
1.44264e-16
6.03044e-16
1.65849e-15
2.30652e-15
1.23842e-15
7.75579e-16
3.00793e-16
2.3525e-16
1.78349e-15
2.33029e-14
2.27439e-13
8.9688e-13
5.20825e-12
1.40327e-11
4.63376e-11
1.65974e-24
3.72945e-26
1.72224e-25
1.04148e-23
1.46531e-22
2.51996e-21
1.1799e-19
2.31813e-18
1.51185e-17
6.68492e-17
1.90332e-16
2.81401e-16
1.67658e-16
9.38555e-17
3.60116e-17
2.57565e-17
1.45525e-16
1.72446e-15
1.81928e-14
1.22288e-13
6.2407e-13
2.51292e-12
6.22514e-12
1.62785e-25
3.6862e-27
1.47553e-26
9.16665e-25
1.29644e-23
2.33752e-22
1.10921e-20
2.19311e-19
1.47414e-18
6.31135e-18
1.78323e-17
2.78089e-17
1.91655e-17
1.06303e-17
4.22813e-18
2.61877e-18
1.12093e-17
1.24497e-16
1.11415e-15
9.34858e-15
4.77588e-14
2.27827e-13
6.72187e-13
1.56626e-26
3.61922e-28
1.22913e-27
7.82652e-26
1.11091e-24
2.07914e-23
9.94865e-22
1.95973e-20
1.33561e-19
5.61939e-19
1.58116e-18
2.55468e-18
1.94349e-18
1.10978e-18
4.66828e-19
2.46964e-19
8.24426e-19
8.51851e-18
7.18417e-17
6.34053e-16
4.82419e-15
2.56886e-14
1.17082e-13
1.47687e-27
3.50729e-29
9.96065e-29
6.48918e-27
9.22934e-26
1.77495e-24
8.4874e-23
1.66041e-21
1.1451e-20
4.84644e-20
1.37075e-19
2.26789e-19
1.81287e-19
1.06291e-19
4.66754e-20
2.18907e-20
5.84013e-20
5.53398e-19
4.87043e-18
6.91619e-17
1.04868e-15
8.12176e-15
4.36299e-14
1.36344e-28
3.34403e-30
7.85434e-30
5.22974e-28
7.44293e-27
1.46038e-25
6.9487e-24
1.34952e-22
9.4033e-22
4.01068e-21
1.13822e-20
1.91386e-20
1.57332e-20
9.3837e-21
4.21766e-21
1.82367e-21
4.01486e-21
3.5089e-20
3.81026e-19
1.2767e-17
3.48672e-16
3.57951e-15
2.07126e-14
1.23112e-29
3.13809e-31
6.03175e-31
4.10085e-29
5.8332e-28
1.16254e-26
5.49774e-25
1.0591e-23
7.42594e-23
3.17287e-22
8.98851e-22
1.52525e-21
1.27808e-21
7.70477e-22
3.49748e-22
1.42508e-22
2.71355e-22
2.32421e-21
3.97564e-20
2.52829e-18
1.00856e-16
1.31842e-15
8.573e-15
1.08596e-30
2.90262e-32
4.51699e-32
3.13188e-30
4.44786e-29
8.97472e-28
4.21531e-26
8.04506e-25
5.6519e-24
2.40799e-23
6.78174e-23
1.15342e-22
9.78404e-23
5.92948e-23
2.69422e-23
1.04955e-23
1.86989e-23
1.85187e-22
5.20597e-21
4.20849e-19
2.09861e-17
3.38711e-16
2.60774e-15
9.34392e-32
2.64114e-33
3.30372e-33
2.33184e-31
3.30357e-30
6.73091e-29
3.13729e-27
5.92521e-26
4.15648e-25
1.7603e-24
4.91238e-24
8.3208e-24
7.09896e-24
4.30032e-24
1.93998e-24
7.36716e-25
1.43542e-24
1.99908e-23
7.10139e-22
5.69645e-20
3.28374e-18
6.30043e-17
5.77874e-16
7.82887e-33
2.35154e-34
2.36461e-34
1.69458e-32
2.39348e-31
4.91449e-30
2.27165e-28
4.24142e-27
2.96241e-26
1.24364e-25
3.42794e-25
5.74804e-25
4.9032e-25
2.95124e-25
1.31054e-25
5.01724e-26
1.36045e-25
2.65993e-24
8.88575e-23
6.18163e-21
4.26696e-19
9.98827e-18
1.03176e-16
6.37625e-34
2.0396e-35
1.65831e-35
1.20398e-33
1.69476e-32
3.5024e-31
1.60502e-29
2.96017e-28
2.05322e-27
8.52075e-27
2.31216e-26
3.81514e-26
3.23525e-26
1.92273e-26
8.33018e-27
3.37777e-27
1.52237e-26
3.59026e-25
9.94831e-24
5.20126e-22
4.42449e-20
1.40288e-18
1.59473e-17
5.03972e-35
1.71891e-36
1.14054e-36
8.38184e-35
1.17559e-33
2.44383e-32
1.11041e-30
2.02169e-29
1.38925e-28
5.6839e-28
1.51314e-27
2.44161e-27
2.04568e-27
1.19207e-27
4.99591e-28
2.2618e-28
1.7045e-27
4.44171e-26
1.09954e-24
3.8909e-23
3.58935e-21
1.67714e-19
2.19009e-18
3.85992e-36
1.40289e-37
7.72113e-38
5.73264e-36
8.01101e-35
1.67513e-33
7.54999e-32
1.35637e-30
9.21403e-30
3.70699e-29
9.64667e-29
1.51261e-28
1.2436e-28
7.05076e-29
2.8343e-29
1.50728e-29
1.76321e-28
5.19252e-27
1.4094e-25
3.83981e-24
2.97397e-22
1.86051e-20
2.8297e-19
2.86148e-37
1.10257e-38
5.16699e-39
3.86307e-37
5.37918e-36
1.13171e-34
5.06231e-33
8.97069e-32
6.01272e-31
2.37303e-30
6.01501e-30
9.11109e-30
7.29674e-30
3.99302e-30
1.52602e-30
1.02711e-30
1.78203e-29
6.32023e-28
2.15942e-26
5.79886e-25
3.54244e-23
2.27567e-21
3.67956e-20
2.0524e-38
8.28851e-40
3.42567e-40
2.5731e-38
3.57012e-37
7.55802e-36
3.35659e-34
5.86488e-33
3.87218e-32
1.49595e-31
3.68151e-31
5.36106e-31
4.15203e-31
2.17711e-31
7.84247e-32
7.46302e-32
1.85273e-30
7.99511e-29
3.36242e-27
1.00664e-25
5.30954e-24
2.99803e-22
4.66339e-21
1.42529e-39
5.94059e-41
2.25973e-41
1.69956e-39
2.34906e-38
5.00221e-37
2.20569e-35
3.7982e-34
2.46663e-33
9.31121e-33
2.21886e-32
3.09615e-32
2.30372e-32
1.1508e-32
3.91758e-33
5.53601e-33
1.81314e-31
8.99613e-30
4.24571e-28
1.45779e-26
7.08282e-25
3.44404e-23
5.12046e-22
9.60306e-41
4.05794e-42
1.48698e-42
1.11653e-40
1.53663e-39
3.28818e-38
1.43914e-36
2.4408e-35
1.55726e-34
5.7353e-34
1.32071e-33
1.76279e-33
1.25311e-33
5.94103e-34
1.93498e-34
3.77306e-34
1.44459e-32
7.57435e-31
3.67594e-29
1.41918e-27
6.52583e-26
2.87762e-24
4.39967e-23
6.30019e-42
2.62932e-43
9.49596e-44
7.3133e-42
1.00171e-40
2.15079e-39
9.33867e-38
1.55879e-36
9.76287e-36
3.5057e-35
7.79554e-35
9.95345e-35
6.72471e-35
3.02152e-35
9.23019e-36
2.25518e-35
8.99181e-34
4.58611e-32
2.14996e-30
8.77779e-29
3.84313e-27
1.67756e-25
2.82795e-24
4.06058e-43
1.26552e-44
4.30782e-45
4.81185e-43
6.55731e-42
1.41043e-40
6.07169e-39
9.96532e-38
6.02442e-37
2.03063e-36
4.09125e-36
4.63449e-36
3.12072e-36
1.12561e-36
3.27815e-37
8.98091e-37
4.90505e-35
2.31966e-33
1.01215e-31
3.98614e-30
1.65384e-28
7.44139e-27
1.34361e-25
1.31764e-44
4.16043e-45
4.16043e-45
1.60081e-44
2.16815e-43
4.66956e-42
1.9912e-40
3.21101e-39
2.53167e-38
1.34271e-37
4.49434e-37
7.80151e-37
3.93689e-37
3.1603e-37
3.1603e-37
3.1603e-37
1.36906e-36
5.99758e-35
2.42486e-33
8.84119e-32
3.43664e-30
1.53581e-28
2.7505e-27
0.99995
0.999936
0.999917
0.999882
0.999933
0.999907
0.999883
0.999443
0.923353
0.903292
0.888443
0.616865
0.00335762
0.00328901
0.00430915
0.00119648
0.00604808
0.00992652
0.0159156
0.00454098
0.194745
0.305776
0.129684
0.0103908
0.448957
0.44767
0.165741
0.0232372
0.49524
0.52355
0.168849
0.00301934
0.51969
0.565526
0.427576
0.0304114
0.565417
0.572407
0.581685
0.549918
0.53533
0.58166
0.584375
0.584663
0.0125895
0.338905
0.543173
0.586526
1.32413e-05
0.000246725
0.000312783
3.02214e-05
5.07784e-06
4.6416e-06
4.64641e-06
4.76873e-06
0.000527903
4.64168e-06
4.60999e-06
4.63368e-06
0.00308362
0.00104588
4.62153e-06
4.61131e-06
0.00240195
0.00275249
0.00268195
0.000293123
7.95569e-05
0.000462447
0.00189993
0.00181737
4.6314e-06
3.67903e-06
2.92378e-05
0.000292143
2.51168e-07
1.30761e-06
8.15985e-07
1.22179e-06
1.76796e-08
8.39439e-08
4.86391e-08
6.07663e-08
2.28635e-09
4.08174e-09
3.44386e-09
3.68335e-09
2.16765e-10
3.80574e-10
4.58336e-10
4.56334e-10
1.63168e-11
2.8752e-11
3.62266e-11
3.62386e-11
1.38068e-12
2.27545e-12
2.56405e-12
2.92321e-12
2.58306e-13
3.15882e-13
4.6834e-13
9.028e-13
9.7299e-14
1.42753e-13
2.28005e-13
4.27242e-13
4.5914e-14
7.1095e-14
1.08621e-13
1.84231e-13
1.94324e-14
3.06108e-14
4.51987e-14
6.78256e-14
6.17374e-15
1.02125e-14
1.58861e-14
2.35974e-14
1.43149e-15
2.51149e-15
4.45843e-15
8.16951e-15
2.59341e-16
4.64129e-16
9.94851e-16
2.63984e-15
3.95699e-17
6.77292e-17
1.6727e-16
6.02582e-16
5.50062e-18
8.83439e-18
1.90155e-17
6.28426e-17
7.38258e-19
1.20776e-18
1.98758e-18
4.32456e-18
9.74312e-20
1.69742e-19
3.22053e-19
9.36406e-19
1.22689e-20
2.49165e-20
8.29041e-20
4.1041e-19
1.40152e-21
4.11028e-21
2.77659e-20
2.00435e-19
1.37514e-22
7.25009e-22
8.25339e-21
7.67627e-20
1.06399e-23
1.09584e-22
1.6499e-21
1.84288e-20
5.85715e-25
1.09859e-23
1.92074e-22
2.39993e-21
1.31333e-26
3.96981e-25
7.80094e-24
1.02917e-22
0.999806
0.99901
0.889485
0.380244
0.20167
0.712883
0.980303
0.533134
0.000150483
0.000116398
0.000115323
0.000116446
0.000123103
0.000257975
0.00222812
0.00506654
0.00317924
0.0110162
0.177513
0.952297
0.659039
0.103245
0.0115221
0.0152499
0.393674
0.973713
0.613449
0.000121681
0.000115323
0.000115323
0.000116927
0.000124889
0.00119636
0.037261
0.141227
0.0426084
0.0113049
0.19121
0.157276
0.00103972
0.00136546
0.00740076
0.119533
0.386881
0.832725
0.809659
0.000283756
0.00011886
0.000115323
0.000122515
0.00033971
0.0652283
0.518892
0.74267
0.36062
0.0138173
0.491197
0.0010397
0.000953805
0.000998321
0.00769751
0.124483
0.370264
0.621838
0.835992
0.40458
0.000249415
0.00011889
0.000251879
0.0223362
0.609128
0.819621
0.818479
0.542987
0.0181345
0.527514
0.00126392
0.000952784
0.000951761
0.0030606
0.00298128
0.00548687
0.215909
0.835992
0.804059
0.168506
0.036294
0.00115874
0.499853
0.819621
0.819621
0.819621
0.410578
0.0167161
0.52505
0.00235723
0.000951761
0.000951761
0.000952519
0.000982799
0.00107712
0.00282959
0.306446
0.806221
0.744046
0.193394
0.126441
0.818307
0.818964
0.819621
0.816009
0.223772
0.016752
0.583455
0.00261876
0.000958569
0.000951761
0.000959935
0.000989212
0.00101191
0.00117162
0.125175
0.793845
0.704963
0.165267
0.459941
0.814484
0.818307
0.818663
0.546645
0.216769
0.128806
0.655407
0.00247192
0.00101381
0.0012058
0.000989113
0.00100362
0.0010369
0.00156472
0.249972
0.714121
0.265055
0.165263
0.455094
0.386885
0.814484
0.80349
0.293972
0.232713
0.459249
0.664024
0.00297954
0.00137507
0.0146837
0.0302613
0.0204196
0.0160647
0.0162662
0.118484
0.264104
0.345498
0.301178
0.145767
0.0627933
0.545527
0.788788
0.523214
0.350678
0.542731
0.670114
0.136285
0.00342631
0.00568852
0.0456831
0.160054
0.22423
0.211481
0.247853
0.329694
0.360157
0.266489
0.00073597
0.000803625
0.0522161
0.575249
0.747221
0.755054
0.724543
0.840592
0.590945
0.518751
0.220358
0.197018
0.383019
0.550179
0.550497
0.549235
0.546317
0.294024
0.0218832
0.000118448
7.17999e-05
0.000598819
0.0933456
0.706706
0.908417
0.919353
0.919118
0.586847
0.601717
0.601717
0.601717
0.599007
0.507816
0.295011
0.120902
0.0917016
0.0303985
0.000104057
2.46375e-05
1.60237e-05
3.39906e-05
0.000327143
0.0310215
0.370948
0.828844
0.9194
0.101504
0.476229
0.564097
0.362397
0.0464107
0.00405476
0.00409861
0.00536026
0.00552199
0.00068509
1.71367e-05
4.32806e-06
5.39039e-06
1.4586e-05
2.74068e-05
0.000141006
0.00090244
0.198131
0.918146
5.11968e-06
6.75139e-06
1.25231e-05
4.78447e-05
0.00397652
0.00402991
0.00462021
0.00467261
0.00113009
1.14186e-05
2.97397e-06
3.65094e-06
4.23769e-06
5.07768e-06
8.95878e-06
2.84704e-05
0.000216378
0.0208974
0.598122
4.7508e-06
5.12078e-06
4.66367e-06
7.7812e-06
0.00043067
0.000774392
2.61006e-05
2.84413e-05
9.66663e-06
7.68281e-07
5.91219e-07
3.54049e-06
1.13619e-05
1.41912e-05
1.20303e-05
3.6063e-06
3.59615e-05
0.00638838
0.0163252
4.63369e-06
4.54265e-06
4.01537e-06
3.78869e-06
4.01762e-06
7.64337e-06
5.15244e-06
1.61605e-06
8.87391e-07
1.96769e-07
1.20634e-07
1.54473e-06
2.34294e-05
2.38609e-05
2.3197e-05
2.41853e-06
1.8806e-06
0.000575228
0.0175944
4.7508e-06
1.54898e-05
8.10284e-06
3.36311e-06
5.8276e-06
4.63999e-06
2.20776e-06
1.78932e-06
1.78962e-06
9.00156e-07
9.04135e-08
2.55811e-08
2.12301e-08
1.45718e-05
1.1584e-05
2.48616e-06
1.0326e-07
0.00133805
0.0872719
0.00125198
0.000173204
3.87481e-05
1.15511e-06
2.63288e-08
7.58525e-09
1.00461e-06
4.52854e-06
4.58635e-06
3.73553e-06
1.69004e-07
1.07948e-08
1.91181e-08
2.11972e-08
2.11982e-08
9.96885e-07
4.97743e-08
0.000144455
0.0872719
0.00055407
0.000365087
4.70264e-05
7.68801e-07
1.53104e-08
1.47928e-09
5.77591e-10
7.28584e-10
1.22496e-09
1.22117e-09
1.92084e-09
4.55315e-09
1.24451e-08
1.91162e-08
2.14606e-08
2.25255e-08
3.43555e-08
4.97715e-08
0.0871513
6.3093e-06
1.39282e-06
2.14601e-06
2.28156e-06
2.90272e-07
4.60291e-10
3.14286e-10
6.15956e-10
7.27595e-10
1.19998e-08
1.47357e-08
1.16349e-07
7.71287e-08
3.34005e-08
2.32571e-08
2.46874e-08
3.53547e-08
8.88261e-08
0.0867303
5.21641e-07
9.60485e-07
2.38313e-07
3.34087e-09
4.74689e-10
3.00511e-10
3.0173e-10
7.0793e-10
7.63137e-10
1.6603e-09
1.67659e-07
9.95525e-07
7.19351e-07
8.37873e-08
5.22224e-08
9.48979e-08
8.8859e-08
4.37944e-07
0.0857272
3.57093e-08
6.90914e-08
4.07681e-08
1.20012e-08
3.35874e-10
2.58128e-10
2.89868e-10
1.81574e-09
2.90314e-09
3.83299e-10
6.79977e-07
1.06753e-06
9.89772e-07
3.02565e-07
3.92153e-07
9.62965e-07
4.45191e-07
3.05073e-06
0.0591195
2.31013e-09
4.17549e-09
2.34345e-09
9.78452e-10
3.40031e-10
2.51386e-10
3.16943e-10
7.0236e-10
3.80516e-10
3.84587e-10
6.51695e-07
1.08631e-06
1.33223e-06
1.78886e-06
2.00881e-06
1.83278e-06
1.88366e-06
0.000200104
0.00143348
1.24724e-10
2.26768e-10
1.91953e-10
1.67043e-10
1.81497e-10
2.21866e-10
2.4622e-10
2.56407e-10
2.95428e-10
3.51092e-10
1.28415e-07
6.3386e-07
9.30445e-07
2.00881e-06
2.01063e-06
3.61992e-07
0.000350997
0.00100321
0.000715004
1.16765e-11
4.36596e-11
9.69234e-11
1.50381e-10
1.97099e-10
1.96074e-10
2.26527e-10
1.5628e-09
1.6969e-09
9.13734e-10
9.23787e-10
1.17327e-07
5.78703e-07
1.99169e-06
1.57933e-06
3.48246e-07
0.00116384
0.00144046
0.00114942
6.66077e-12
4.01469e-11
1.01968e-10
1.93924e-10
2.62746e-10
1.9687e-10
7.23867e-10
6.97146e-09
8.10204e-09
3.16796e-09
9.09752e-10
3.21721e-07
9.11026e-07
5.28991e-07
3.48709e-07
3.48709e-07
0.00115053
0.000437303
0.00993122
5.36765e-12
3.63031e-11
1.35805e-10
2.99343e-10
3.11666e-10
1.99387e-10
1.49503e-09
9.01558e-09
9.42981e-09
3.61141e-09
1.13414e-09
4.1555e-07
9.29901e-07
7.55973e-07
3.428e-07
3.48709e-07
0.0010906
4.42687e-06
0.0649304
3.7072e-12
3.851e-11
1.71362e-10
3.0746e-10
3.58677e-10
2.75676e-10
9.62609e-10
3.46243e-09
8.54026e-09
3.19305e-09
1.60556e-09
1.98797e-07
9.44859e-07
9.44859e-07
3.36503e-07
3.428e-07
0.000236798
1.53399e-06
0.0701691
2.43453e-12
3.34065e-11
1.47797e-10
2.79391e-10
5.38129e-10
5.19791e-10
2.4316e-10
2.48516e-10
1.2618e-07
1.41492e-07
1.00986e-08
6.51911e-08
8.97964e-07
5.08709e-07
3.25812e-07
4.90682e-05
1.53399e-06
1.23648e-06
0.070345
1.94305e-12
2.759e-11
1.28791e-10
3.06293e-10
5.3994e-10
3.13738e-10
2.05024e-10
3.07572e-07
1.23021e-06
4.18223e-07
1.23163e-08
2.56594e-08
2.27248e-07
2.83482e-07
3.2758e-07
0.000185359
1.96935e-05
8.98382e-07
0.0706059
1.78663e-12
2.47365e-11
1.12828e-10
2.04417e-10
4.30713e-10
2.31078e-10
2.03828e-10
1.17227e-06
1.27819e-06
4.19493e-07
2.01336e-08
2.67668e-08
7.62449e-08
2.28655e-06
3.25812e-07
0.000141592
1.79744e-05
4.93584e-07
0.0732246
1.3432e-12
1.71882e-11
7.41524e-11
1.21522e-10
4.95861e-10
2.34575e-10
2.03301e-10
1.24967e-06
1.27819e-06
3.21482e-07
2.83455e-08
2.93391e-08
2.25918e-06
9.01783e-06
1.45835e-06
2.08553e-07
1.7262e-07
2.08553e-07
0.0733354
5.3768e-13
7.19503e-12
1.77741e-11
7.59574e-11
4.95923e-10
2.30456e-10
2.01973e-10
4.58918e-07
1.27819e-06
3.59095e-07
2.17525e-06
1.88064e-06
1.56146e-05
2.86944e-05
1.95198e-05
2.37157e-07
1.7262e-07
1.7262e-07
0.0733655
7.67752e-14
1.23185e-12
3.20375e-12
1.37576e-11
3.43983e-10
2.018e-10
1.99631e-10
2.0255e-10
6.92723e-07
1.66737e-07
1.09553e-05
2.85192e-05
3.96033e-05
3.96033e-05
2.17774e-05
8.35999e-08
1.1749e-07
4.07052e-05
0.0733688
4.15625e-15
1.42066e-13
1.08384e-12
8.53426e-12
8.10189e-11
6.12354e-11
6.99235e-10
2.23102e-10
9.59348e-11
9.84213e-11
9.82268e-06
3.18545e-05
3.18722e-05
1.45214e-05
9.07577e-13
6.38868e-10
7.78645e-07
1.66672e-05
0.0733689
3.7457e-16
2.85115e-14
7.66103e-13
6.10203e-12
1.36237e-11
8.48914e-12
1.37392e-09
6.11379e-10
9.27476e-11
1.30556e-10
2.24516e-11
5.05447e-07
6.13962e-15
2.36633e-15
8.46583e-16
9.07576e-13
5.8445e-06
0.000256288
0.0732935
9.88031e-17
7.09101e-15
4.30705e-13
2.76523e-12
3.17804e-12
1.59205e-12
4.79493e-11
1.43944e-10
9.30635e-11
3.6131e-10
4.83209e-11
6.13931e-15
1.02293e-16
8.88847e-18
7.48448e-18
7.50123e-13
4.13265e-06
0.00167712
0.0716094
3.24287e-17
1.58391e-15
1.04955e-13
2.6042e-13
7.07802e-13
5.11714e-13
1.31118e-11
4.96598e-11
6.21262e-11
3.47011e-10
1.085e-10
3.01488e-12
2.46841e-16
4.702e-18
4.73783e-18
4.11721e-14
1.2867e-08
0.00258638
0.0123977
7.96394e-18
2.05912e-16
6.30719e-15
8.52935e-15
1.33298e-13
8.97821e-14
9.98387e-12
1.5512e-11
1.2861e-11
2.06546e-11
4.39137e-12
1.39127e-13
1.56068e-20
1.4735e-20
7.12972e-24
1.21201e-11
1.19503e-12
0.000745539
1.20196e-14
1.08371e-18
1.18905e-17
7.49122e-17
2.47233e-16
1.02883e-14
4.23677e-15
8.93342e-13
4.98719e-13
1.1181e-13
1.55372e-20
6.8369e-23
1.57237e-23
1.30849e-24
6.1699e-28
7.49739e-30
7.10419e-11
1.15204e-11
1.20175e-14
5.04037e-15
6.96062e-20
3.47813e-19
1.51712e-18
2.5597e-17
1.46896e-16
2.73454e-17
7.48779e-15
1.36061e-15
1.33835e-18
3.84206e-25
5.61545e-28
8.64703e-31
7.85678e-29
2.03445e-31
7.48332e-30
9.51026e-11
2.40734e-11
1.30765e-13
8.46629e-17
1.34623e-21
4.14192e-21
2.34883e-20
8.30534e-19
5.04944e-19
4.09144e-19
1.013e-18
1.22746e-19
3.15675e-22
1.35775e-33
3.27374e-36
4.79736e-38
1.00406e-39
5.54673e-43
0
6.00161e-11
4.78583e-12
2.58767e-15
3.49825e-29
)
;

boundaryField
{
    leftWall
    {
        type            zeroGradient;
    }
    rightWall
    {
        type            zeroGradient;
    }
    lowerWall
    {
        type            zeroGradient;
    }
    atmosphere
    {
        type            inletOutlet;
        inletValue      uniform 0;
        value           nonuniform List<scalar> 
46
(
1.31764e-44
4.16043e-45
4.16043e-45
1.60081e-44
2.16815e-43
4.66956e-42
1.9912e-40
3.21101e-39
2.53167e-38
1.34271e-37
4.49434e-37
7.80151e-37
3.93689e-37
3.1603e-37
3.1603e-37
3.1603e-37
1.36906e-36
5.99758e-35
2.42486e-33
8.84119e-32
3.43664e-30
1.53581e-28
2.7505e-27
1.31333e-26
3.96981e-25
7.80094e-24
1.02917e-22
1.34623e-21
0
0
0
0
0
0
0
0
0
0
0
0
0
0
0
0
0
0
)
;
    }
    defaultFaces
    {
        type            empty;
    }
}


// ************************************************************************* //
