/*--------------------------------*- C++ -*----------------------------------*\
  =========                 |
  \\      /  F ield         | OpenFOAM: The Open Source CFD Toolbox
   \\    /   O peration     | Website:  https://openfoam.org
    \\  /    A nd           | Version:  13
     \\/     M anipulation  |
\*---------------------------------------------------------------------------*/
FoamFile
{
    format      ascii;
    class       volScalarField;
    location    "0.7";
    object      p;
}
// * * * * * * * * * * * * * * * * * * * * * * * * * * * * * * * * * * * * * //

dimensions      [1 -1 -2 0 0 0 0];

internalField   nonuniform List<scalar> 
2268
(
506.004
505.606
507.533
512.123
521.235
536.666
558.239
582.096
605.088
626.96
648.277
669.144
689.409
708.881
727.33
744.113
758.959
770.885
776.525
775.257
781.872
809.675
837.1
446.664
445.759
447.552
452.044
460.893
476.38
498.378
522.791
546.118
568.119
589.48
610.367
630.651
650.148
668.691
685.764
701.167
714.984
721.22
715.729
716.644
740.147
772.75
385.852
384.713
386.745
391.106
399.277
414.605
437.328
462.983
487.083
509.341
530.811
551.727
571.974
591.364
609.741
626.855
642.472
656.477
664.094
659.647
658.227
676.912
709.471
324.232
322.958
325.157
329.177
336.284
351.26
375.266
402.978
428.218
450.782
472.329
493.276
513.522
532.873
551.195
568.313
583.981
597.693
606.714
606.085
607.258
621.905
649.875
262.512
260.965
263.072
266.688
272.99
287.616
313.595
343.402
369.73
392.509
414.116
435.071
455.31
474.646
493
510.22
526.017
539.797
550.609
555.338
560.69
571.253
593.018
200.826
198.998
200.586
203.836
210.034
225.686
253.165
284.259
311.397
334.41
356.168
377.123
397.32
416.621
435.042
452.423
468.487
482.79
495.025
503.4
511.244
519.548
536.392
139.181
138.187
138.841
141.731
149.214
166.361
193.68
224.553
252.423
275.876
298.312
319.474
339.624
358.842
377.305
394.856
411.199
425.837
438.965
449.306
459.297
467.231
481.156
76.9513
78.124
78.4383
81.6587
90.5924
108.816
135.591
165.151
192.6
217.523
240.544
261.961
282.009
301.026
319.627
337.496
354.274
369.117
382.754
394.754
406.344
414.649
428.7
750.492
617.526
659.967
765.707
863.242
915.304
948.694
893.825
897.031
847.523
659.42
500.698
418.14
392.221
422.2
551.967
778.028
920.408
957.809
682.545
513.6
568.655
696.952
803.007
858.707
881.587
818.227
836.67
745.661
499.328
356.238
325.705
329.28
353.651
447.183
644.046
846.003
909.21
584.401
406.008
484.534
624.834
743.569
811.096
844.282
775.528
709.172
487.697
310.286
282.785
280.406
282.269
286.891
308.157
431.736
736.199
866.235
482.268
310.718
411.581
552.743
680.804
772.639
844.542
764.352
520.273
320.498
282.806
277.65
277.118
277.808
279.334
283.511
316.813
546.215
813.16
426.009
263.238
350.274
480.393
610.677
734.091
884.309
733.018
367.328
288.152
277.788
276.69
276.762
277.572
278.92
280.717
290.971
381.577
743.022
405.68
260.906
296.144
402.71
522.171
665.75
888.305
647.154
310.941
279.992
276.517
276.132
276.429
277.375
278.782
280.288
282.257
307.877
637.608
391.399
273.278
247.512
298.623
402.995
553.334
839.116
506.39
293.982
277.497
275.931
275.688
276.119
277.109
278.567
279.992
279.934
281.418
492.863
360.39
249.482
185.818
159.349
173.043
374.084
724.983
391.877
283.262
276.328
275.474
275.316
275.811
276.8
278.212
279.227
279.538
270.457
372.692
23.7701
26.2105
30.0949
34.1458
39.2474
47.6791
61.2193
80.2509
102.915
126.721
150.191
172.477
192.608
211.002
229.486
247.542
264.376
280.341
294.809
308.941
322.87
332.478
342.92
8.0129
7.60551
8.51292
9.71654
11.0606
12.2339
13.9599
18.26
26.0551
36.9459
50.5692
65.9441
81.0936
95.0203
109.861
127.404
144.412
161.062
176.407
194.358
213.423
224.674
223.584
6.83296
6.43093
6.37969
6.25165
6.11272
6.0426
6.09897
6.19618
6.25433
6.52204
8.71437
12.9807
18.3917
23.412
29.2784
37.9964
51.52
75.3489
85.82
101.581
126.06
135.84
109.039
6.20264
5.97492
5.97938
5.92376
5.85463
5.83264
5.89439
5.97895
6.03033
6.06129
6.06998
6.09677
6.18304
6.32229
6.31314
6.21618
7.44916
9.31509
1.84709
-0.135199
21.7735
65.8731
51.5977
5.92415
5.73206
5.75662
5.71633
5.67223
5.65083
5.68007
5.7422
5.79449
5.82777
5.84416
5.86368
5.87765
5.86792
5.87286
5.96441
5.96717
2.72829
-3.51725
10.5144
31.3184
28.9471
29.6057
5.72937
5.6281
5.59034
5.55917
5.54097
5.53904
5.57997
5.61643
5.64525
5.66642
5.67767
5.67793
5.66715
5.66297
5.57941
5.32605
5.40679
9.97689
9.44577
3.17873
6.28766
17.9421
23.1087
5.52003
5.4918
5.44644
5.41622
5.40446
5.40405
5.41576
5.42866
5.43896
5.44577
5.44612
5.43852
5.41437
5.36427
5.21753
4.94611
4.85857
5.00575
4.84208
5.32894
11.694
20.5166
9.39289
5.30584
5.30996
5.2865
5.26341
5.24957
5.243
5.24472
5.24852
5.24582
5.2363
5.22111
5.1987
5.16409
5.10987
5.02297
4.94029
4.94416
4.90267
4.77744
4.71949
4.82044
5.0676
-3.23006
5.10914
5.11618
5.10266
5.08863
5.07555
5.06599
5.06226
5.05909
5.05018
5.0345
5.01173
4.98079
4.94083
4.89148
4.83208
4.77691
4.74173
4.67862
4.54654
4.37175
4.16061
3.83307
3.793
4.9196
4.92087
4.91042
4.90069
4.88946
4.87942
4.87106
4.86132
4.8477
4.82919
4.80407
4.77098
4.73011
4.68263
4.62781
4.57038
4.52111
4.47105
4.38934
4.25449
4.0458
4.02572
6.6137
4.72952
4.72799
4.71975
4.71119
4.70084
4.68961
4.67799
4.66413
4.64703
4.62552
4.59794
4.56309
4.52112
4.47269
4.41729
4.35574
4.29152
4.22265
4.12556
3.95215
3.67855
3.50247
5.98469
4.54132
4.53874
4.53206
4.52373
4.51335
4.50084
4.48685
4.4702
4.4501
4.4254
4.39499
4.35787
4.31367
4.26215
4.20245
4.13361
4.05422
3.96036
3.82988
3.61628
3.36768
3.11025
2.56391
4.35617
4.35303
4.34713
4.33833
4.32768
4.31407
4.29821
4.27914
4.25625
4.22866
4.19557
4.156
4.10902
4.05364
3.98818
3.91068
3.81872
3.70807
3.56462
3.35775
3.07008
2.74337
2.51026
4.17383
4.17065
4.16528
4.15533
4.14426
4.12982
4.11244
4.09142
4.06629
4.03631
4.00071
3.95845
3.90838
3.84899
3.77801
3.69264
3.58977
3.46414
3.30114
3.05905
2.67491
2.27328
1.76851
3.99449
3.99135
3.98593
3.97582
3.96411
3.94888
3.93031
3.90784
3.88101
3.84912
3.81135
3.76663
3.71367
3.65072
3.57513
3.4834
3.37149
3.23329
3.05557
2.79897
2.40184
1.90656
1.35791
3.81841
3.81518
3.80952
3.79986
3.78748
3.77159
3.75218
3.72867
3.70062
3.66734
3.62802
3.58157
3.52659
3.46117
3.38258
3.28684
3.16885
3.02116
2.84341
2.57572
2.17043
1.52677
1.01037
3.64575
3.64244
3.63657
3.62703
3.61432
3.59807
3.57811
3.55399
3.52518
3.4911
3.45101
3.40379
3.34797
3.28167
3.20228
3.10615
2.98837
2.84249
2.65748
2.39908
2.00895
1.4052
0.813228
3.47642
3.47304
3.46713
3.45761
3.44476
3.42836
3.40818
3.38384
3.35486
3.32066
3.28047
3.23329
3.17783
3.1124
3.03461
2.9413
2.8281
2.68926
2.51595
2.28893
1.97252
1.49416
0.948969
3.31035
3.30696
3.30109
3.29164
3.27883
3.26249
3.2424
3.21821
3.18953
3.15578
3.11626
3.07009
3.01618
2.95315
2.87899
2.79121
2.68646
2.56056
2.40828
2.22059
1.98181
1.65272
1.23087
3.14748
3.14413
3.13836
3.12907
3.11646
3.1004
3.08068
3.05699
3.02901
2.99623
2.95805
2.91373
2.8624
2.80296
2.73391
2.6534
2.55928
2.44896
2.31966
2.16808
1.9896
1.7754
1.51856
2.98772
2.98443
2.97884
2.96978
2.95753
2.94195
2.92284
2.89996
2.87304
2.84167
2.80536
2.76352
2.71548
2.66042
2.59731
2.5249
2.44195
2.34715
2.23933
2.11777
1.98268
1.83596
1.67883
2.83096
2.82775
2.82238
2.81366
2.80189
2.78695
2.76866
2.74685
2.72128
2.69165
2.65756
2.61859
2.57428
2.52404
2.46719
2.403
2.33086
2.25029
2.16111
2.06368
1.95947
1.85179
1.74421
2.67704
2.67396
2.66885
2.66054
2.64936
2.63519
2.61789
2.59734
2.57338
2.54572
2.51409
2.4782
2.43779
2.39249
2.34186
2.28555
2.22339
2.1554
2.08193
2.00381
1.92271
1.84153
1.76386
2.5258
2.52289
2.51807
2.51023
2.49973
2.48643
2.47024
2.4511
2.42888
2.40336
2.37432
2.34161
2.30511
2.26462
2.21994
2.17096
2.11776
2.06066
2.00028
1.93762
1.87428
1.81271
1.75575
2.37707
2.37436
2.36985
2.36254
2.35278
2.34041
2.32541
2.30776
2.28735
2.26402
2.23762
2.2081
2.1754
2.13949
2.10033
2.05798
2.01267
1.96488
1.91529
1.86489
1.81511
1.76787
1.72525
2.23069
2.22819
2.22399
2.21724
2.20825
2.19686
2.18309
2.16696
2.14836
2.12719
2.10339
2.07695
2.04789
2.01626
1.98213
1.94568
1.90724
1.86731
1.82655
1.78586
1.7464
1.70969
1.67722
2.08647
2.08416
2.0803
2.07411
2.06588
2.05549
2.04297
2.02833
2.0115
1.99242
1.97111
1.94761
1.92196
1.89426
1.86468
1.83344
1.80092
1.76758
1.73405
1.70108
1.66962
1.64086
1.61587
1.94421
1.94208
1.93858
1.93293
1.92545
1.91605
1.90476
1.89158
1.87644
1.85935
1.8404
1.81964
1.79715
1.77305
1.74754
1.72088
1.69342
1.66563
1.63801
1.61122
1.58602
1.56334
1.54397
1.80369
1.80173
1.79859
1.79349
1.78676
1.77832
1.76821
1.75642
1.74289
1.7277
1.71097
1.69276
1.67315
1.6523
1.63041
1.60774
1.58463
1.56146
1.5387
1.51687
1.49661
1.47862
1.46348
1.66471
1.66291
1.66014
1.65556
1.64957
1.64207
1.63309
1.6226
1.61062
1.59723
1.58256
1.56669
1.54971
1.53178
1.51308
1.49388
1.47447
1.45518
1.4364
1.41858
1.40223
1.3879
1.37599
1.52712
1.52548
1.52303
1.51894
1.51368
1.50706
1.49915
1.4899
1.47938
1.46769
1.45494
1.44121
1.4266
1.41126
1.39538
1.37919
1.36294
1.34691
1.33143
1.31687
1.30365
1.29218
1.28276
1.3908
1.3893
1.38713
1.38349
1.37892
1.37312
1.36619
1.35811
1.34896
1.33886
1.32788
1.3161
1.30363
1.2906
1.2772
1.26362
1.25008
1.23681
1.22408
1.21221
1.20152
1.19233
1.18486
1.25559
1.25424
1.2523
1.2491
1.24514
1.24009
1.23406
1.22707
1.21921
1.21057
1.20121
1.1912
1.18065
1.16969
1.15848
1.14718
1.13597
1.12505
1.11464
1.105
1.09639
1.08905
1.08313
1.1213
1.12011
1.11839
1.11562
1.11221
1.10784
1.10266
1.09669
1.09002
1.08271
1.07481
1.0664
1.05756
1.04844
1.03915
1.02985
1.02066
1.01175
1.00331
0.995548
0.988677
0.982866
0.978209
0.987737
0.986741
0.985253
0.982896
0.979991
0.976248
0.971862
0.966833
0.961248
0.955146
0.948566
0.941577
0.934273
0.926768
0.919176
0.911603
0.904159
0.896977
0.890219
0.884056
0.878644
0.874113
0.870524
0.854766
0.854002
0.852732
0.850752
0.848319
0.845176
0.841543
0.83739
0.832793
0.827775
0.822371
0.81665
0.810699
0.804619
0.798502
0.79243
0.786492
0.780795
0.775473
0.77066
0.766479
0.763022
0.76033
0.722289
0.721783
0.720703
0.719069
0.717082
0.71452
0.711596
0.708244
0.704539
0.700492
0.69614
0.691551
0.686805
0.68198
0.677149
0.672374
0.667726
0.663296
0.659192
0.655517
0.652363
0.649796
0.64783
0.590245
0.590013
0.589081
0.587773
0.586215
0.584207
0.581933
0.579303
0.576398
0.573223
0.569822
0.566257
0.56259
0.558878
0.55517
0.551515
0.547974
0.544624
0.541547
0.538821
0.536515
0.534664
0.53326
0.458582
0.458623
0.457803
0.456818
0.455668
0.454169
0.452478
0.450493
0.448309
0.445929
0.4434
0.440768
0.438073
0.43535
0.432629
0.42995
0.427364
0.424934
0.422724
0.420792
0.419181
0.417903
0.416937
0.327236
0.327511
0.326807
0.326144
0.325368
0.324326
0.323155
0.32176
0.320242
0.318599
0.316875
0.315094
0.313273
0.311429
0.309581
0.30776
0.306011
0.304381
0.302918
0.301656
0.300617
0.299802
0.299186
0.196193
0.196583
0.196013
0.195664
0.19522
0.194601
0.193912
0.193078
0.192193
0.191244
0.190262
0.18925
0.188212
0.187154
0.186092
0.185049
0.184054
0.183137
0.182321
0.181626
0.181063
0.180628
0.180301
0.0651583
0.0655936
0.0653279
0.065241
0.0650958
0.0648761
0.0646506
0.064368
0.0640877
0.0637884
0.0634846
0.0631704
0.0628449
0.0625122
0.0621795
0.061857
0.0615544
0.0612795
0.0610399
0.0608393
0.0606812
0.0605596
0.0604646
345.955
341.332
331.957
316.914
222.946
221.657
216.306
196.193
101.701
103.388
116.748
98.3926
51.6081
51.7151
50.5434
47.3158
39.5523
44.764
44.9397
40.4744
17.577
16.015
21.975
26.9296
10.7983
19.8927
30.6079
32.707
3.7968
19.0107
40.477
38.8347
9.3514
14.6882
42.6028
44.612
11.8129
3.51253
3.22306
16.7323
13.597
10.8466
17.2981
24.4481
4.26842
11.5047
13.617
6.39115
2.32425
1.61335
0.42601
-0.133579
1.43248
1.26771
1.07113
0.840987
1.01829
0.833878
0.636157
0.433075
0.636099
0.431721
0.260579
0.0966949
0.492548
0.155738
-0.155047
-0.340952
0.597117
0.309438
-0.0311269
-0.337612
0.934128
0.767065
0.611203
0.454266
1.33229
1.22129
1.12407
1.04693
1.57166
1.50923
1.45545
1.41648
1.67489
1.63705
1.60619
1.58345
1.71573
1.68982
1.66879
1.65305
1.7215
1.70309
1.68806
1.67671
1.70009
1.68669
1.67579
1.66756
1.6584
1.6485
1.6405
1.63449
1.60167
1.59427
1.58833
1.58393
1.53316
1.52757
1.52314
1.51992
1.45519
1.45095
1.44763
1.44528
1.36958
1.36635
1.36384
1.3621
1.27778
1.27528
1.27335
1.27203
1.18094
1.17898
1.17747
1.17645
1.08004
1.07849
1.07733
1.07657
0.975805
0.974623
0.973759
0.97322
0.868725
0.86787
0.867276
0.866934
0.759041
0.758453
0.758057
0.757838
0.646924
0.646515
0.646235
0.646071
0.532618
0.532323
0.532111
0.531972
0.416489
0.416278
0.416119
0.416002
0.2989
0.298764
0.298653
0.298556
0.180157
0.180086
0.180018
0.179947
0.060421
0.0603953
0.0603635
0.0603223
282.823
187.512
99.0106
46.0695
23.9265
83.8688
470.336
294.81
276.189
275.206
274.769
274.796
275.363
276.325
277.307
276.91
276.929
266.134
306.744
140.724
75.8542
46.4241
37.3224
30.1036
32.5425
231.087
272.557
274.406
274.725
274.306
274.665
275.033
275.616
274.313
265.616
263.381
258.741
279.128
52.1678
36.1602
35.4368
32.2127
29.5456
63.4524
191.22
272.583
276.868
275.035
274.568
274.824
274.729
271.772
239.497
205.198
207.71
214.805
239.36
39.2856
34.7727
32.0698
26.562
22.9379
61.1978
139.756
228.124
276.257
275.991
275.712
275.586
274.772
244.219
168.424
103.784
114.909
140.022
159.777
34.4565
29.6709
27.2826
25.1429
27.3659
34.343
42.9451
122.499
228.232
269.835
276.652
286.663
283.246
216.265
99.7302
30.5496
71.3192
107.955
93.7951
29.0021
24.146
22.261
23.8312
27.909
31.4288
31.7515
31.8272
131.658
284.662
345.262
336.137
368.775
204.811
51.0511
8.05527
72.0267
113.089
74.3135
27.9698
21.3651
19.3797
22.9041
27.7335
30.568
31.4502
29.6568
55.1895
321.306
453.074
390.776
378.808
158.577
39.0155
19.0146
78.943
125.301
89.189
31.1671
24.1919
20.3031
23.3816
27.9139
31.0989
33.1575
31.6104
53.4685
290.946
385.8
212.679
205.72
85.8695
32.3665
53.4423
107.569
131.959
113.416
39.1845
33.104
26.7672
25.3854
28.3797
30.8208
36.1888
53.6558
121.736
209.299
210.667
52.9176
49.7491
26.4007
23.4467
77.3205
132.292
154.066
131.302
41.5338
38.5215
32.3773
24.7417
16.467
33.6832
78.4944
133.779
136.547
102.103
34.6071
23.1591
19.3873
11.6391
14.2856
70.016
123.129
155.19
144.607
20.6275
0.320783
6.12697
4.2653
9.79587
34.8224
74.5282
108.825
99.122
11.749
6.3846
10.7609
10.3729
8.21075
9.80389
62.8859
106.794
139.812
132.463
-2.52654
0.220262
4.79141
2.46326
18.4591
33.1822
15.9585
2.70509
7.22914
1.56976
4.12249
6.81399
6.79449
6.14197
5.23149
9.00013
42.519
91.4963
78.8822
5.9271
30.1803
36.7193
23.0559
4.01499
2.71135
1.95391
1.75438
1.15223
1.68143
3.7077
5.12382
5.0062
4.69177
4.23581
4.59248
9.05393
22.0757
52.3783
0.49892
0.503201
0.696477
0.82263
1.43194
1.8038
1.98934
2.34694
2.42583
2.71461
3.5292
3.89982
3.79503
3.74248
3.64986
3.68572
4.88126
12.9962
100.406
0.238444
0.425294
0.821419
1.31418
1.83319
2.24735
2.36622
2.54259
2.79785
3.01586
3.17001
3.1094
3.07049
3.12569
3.19976
3.28226
3.619
6.863
32.5552
-0.072797
0.218824
0.839918
1.51873
2.03898
2.32851
2.50786
2.72987
2.91168
2.96391
2.89224
2.73895
2.74534
2.83679
2.93093
2.98942
2.77278
4.1719
12.639
-0.491599
-0.0630783
0.742183
1.52875
2.07255
2.35245
2.49838
2.63503
2.74397
2.77201
2.71527
2.64156
2.66943
2.76419
2.86518
2.86997
2.87721
2.88384
6.55362
-0.547794
0.00505828
0.781339
1.50582
1.98439
2.25382
2.40949
2.52691
2.61144
2.64997
2.64709
2.64463
2.691
2.77421
2.87562
2.92545
3.03166
2.77259
3.95322
0.282048
0.470625
1.01327
1.55052
1.92602
2.1554
2.30129
2.41079
2.49703
2.55893
2.59905
2.63506
2.69016
2.76723
2.86823
2.95152
3.05837
2.96395
3.46262
0.959057
1.03746
1.30925
1.63564
1.89444
2.07217
2.20018
2.30388
2.39168
2.4639
2.52268
2.57713
2.64107
2.71995
2.82415
2.92596
3.03912
2.97821
3.34529
1.36813
1.38487
1.51305
1.70231
1.8749
2.00985
2.11785
2.2102
2.29163
2.36333
2.42786
2.49117
2.56215
2.6436
2.74927
2.85412
2.98624
2.93758
3.2615
1.55584
1.56606
1.62922
1.73834
1.85346
1.95563
2.04432
2.12352
2.19571
2.26233
2.32613
2.39151
2.46458
2.54435
2.64593
2.73378
2.89177
2.86477
3.3235
1.63448
1.63449
1.67748
1.74675
1.82657
1.90433
1.97609
2.04228
2.1039
2.1624
2.22078
2.28273
2.35258
2.42484
2.51374
2.553
2.72071
2.58661
2.58851
1.66328
1.66315
1.68957
1.73581
1.79272
1.85202
1.9092
1.96271
2.01257
2.06052
2.11037
2.16549
2.22841
2.2894
2.36294
2.34936
2.48328
2.32519
2.46562
1.65779
1.65765
1.67529
1.70787
1.74981
1.79542
1.84045
1.8822
1.91982
1.95564
1.99469
2.04046
2.09381
2.14199
2.19799
2.15688
2.22328
2.09808
2.24822
1.62745
1.62773
1.64075
1.66509
1.6972
1.73296
1.76836
1.79971
1.82499
1.84712
1.87296
1.90721
1.94987
1.98728
2.02719
1.98812
1.97456
1.933
2.35062
1.5789
1.57973
1.59019
1.6094
1.63498
1.66383
1.69207
1.71447
1.7272
1.73401
1.74446
1.76599
1.79927
1.83218
1.86558
1.85142
1.7952
1.83358
2.13129
1.5164
1.51776
1.52655
1.54232
1.5634
1.58749
1.61069
1.62549
1.62584
1.61682
1.61144
1.62115
1.64857
1.68491
1.72422
1.74597
1.70112
1.73262
2.08456
1.44286
1.44455
1.45207
1.46522
1.48292
1.50358
1.52328
1.532
1.52184
1.49941
1.48066
1.4816
1.50699
1.55184
1.59452
1.64143
1.63001
1.62014
1.93339
1.36041
1.36216
1.36857
1.3795
1.39436
1.4122
1.42941
1.43435
1.41825
1.38802
1.36125
1.35791
1.38326
1.43335
1.47851
1.51208
1.5434
1.51029
1.82484
1.2708
1.27244
1.27777
1.28672
1.29898
1.31409
1.32937
1.33362
1.31824
1.28824
1.26097
1.2585
1.28633
1.33716
1.38417
1.38133
1.44705
1.40719
1.75385
1.17556
1.17699
1.18133
1.18849
1.1983
1.21054
1.22374
1.22937
1.22056
1.198
1.17816
1.17898
1.20609
1.2493
1.30104
1.28418
1.35289
1.30354
1.67257
1.07597
1.07727
1.08061
1.08616
1.09364
1.10286
1.11308
1.11942
1.11796
1.1066
1.09706
1.0983
1.11405
1.14214
1.19132
1.18809
1.24983
1.19481
1.55209
0.9728
0.973531
0.976419
0.980591
0.98595
0.99221
0.998852
1.00356
1.00476
1.00193
0.997621
0.995721
1.00207
1.01826
1.05734
1.06928
1.12703
1.08894
1.37263
0.866705
0.867402
0.869335
0.872204
0.875724
0.879483
0.883053
0.885044
0.884966
0.883601
0.880384
0.876626
0.879541
0.890524
0.91999
0.935928
0.985764
0.999505
1.14735
0.757696
0.758166
0.75934
0.761092
0.76309
0.764923
0.766386
0.766301
0.763874
0.760669
0.757173
0.753893
0.755428
0.760287
0.778352
0.787474
0.824526
0.863403
0.885347
0.645939
0.64612
0.646655
0.64746
0.648186
0.648487
0.648364
0.646809
0.642997
0.638618
0.634655
0.630398
0.628
0.623039
0.625914
0.615938
0.602253
0.591241
0.737859
0.531819
0.531739
0.531751
0.531758
0.531421
0.530473
0.529012
0.526188
0.521495
0.51633
0.511122
0.504598
0.497599
0.483522
0.471089
0.434704
0.369338
0.0936107
0.71128
0.415831
0.415558
0.415165
0.414519
0.413349
0.411424
0.408883
0.405096
0.39992
0.394221
0.387866
0.379479
0.369319
0.350266
0.329864
0.277824
0.19277
-0.00262723
0.0326527
0.298376
0.297982
0.297313
0.296186
0.294418
0.291857
0.288595
0.284262
0.278869
0.27285
0.265851
0.256695
0.245266
0.226234
0.206968
0.164023
0.115199
0.0278602
0.00733655
0.179792
0.179382
0.178577
0.177156
0.17502
0.172119
0.168431
0.163768
0.15823
0.152034
0.14483
0.135746
0.124373
0.107686
0.0908541
0.0575443
0.0343302
-0.00956455
-0.0497356
0.0602277
0.0599507
0.0592538
0.0577561
0.0553881
0.052173
0.0480326
0.0429513
0.0373591
0.0313369
0.0244507
0.0160065
0.00552802
-0.00874051
-0.0239091
-0.0544095
-0.0744231
-0.130871
-0.184551
)
;

boundaryField
{
    leftWall
    {
        type            calculated;
        value           nonuniform List<scalar> 
50
(
506.004
446.664
385.852
324.232
262.512
200.826
139.181
76.9513
23.7701
8.0129
6.83296
6.20264
5.92415
5.72937
5.52003
5.30584
5.10914
4.9196
4.72952
4.54132
4.35617
4.17383
3.99449
3.81841
3.64575
3.47642
3.31035
3.14748
2.98772
2.83096
2.67704
2.5258
2.37707
2.23069
2.08647
1.94421
1.80369
1.66471
1.52712
1.3908
1.25559
1.1213
0.987737
0.854766
0.722289
0.590245
0.458582
0.327236
0.196193
0.0651583
)
;
    }
    rightWall
    {
        type            calculated;
        value           nonuniform List<scalar> 
50
(
957.809
909.21
866.235
813.16
743.022
637.608
492.863
372.692
306.744
279.128
239.36
159.777
93.7951
74.3135
89.189
113.416
131.302
144.607
132.463
78.8822
52.3783
100.406
32.5552
12.639
6.55362
3.95322
3.46262
3.34529
3.2615
3.3235
2.58851
2.46562
2.24822
2.35062
2.13129
2.08456
1.93339
1.82484
1.75385
1.67257
1.55209
1.37263
1.14735
0.885347
0.737859
0.71128
0.0326527
0.00733655
-0.0497356
-0.184551
)
;
    }
    lowerWall
    {
        type            calculated;
        value           nonuniform List<scalar> 
62
(
535.433
535.035
536.962
541.553
550.665
566.096
587.669
611.525
634.517
656.39
677.706
698.573
718.838
738.31
756.759
773.542
788.306
799.149
804.394
804.399
811.244
839.047
866.471
837.1
772.75
709.471
649.875
593.018
536.392
481.156
428.7
408.549
403.925
394.55
379.504
750.492
682.545
584.401
482.268
426.009
405.68
391.399
360.39
777.825
646.953
689.395
795.135
892.636
940.768
969.778
913.011
918.131
873.868
685.765
527.043
444.484
418.556
448.522
578.338
804.425
946.805
981.954
)
;
    }
    atmosphere
    {
        type            calculated;
        value           nonuniform List<scalar> 
46
(
0
0
0
0
0
0
0
0
0
0
0
0
0
0
0
0
0
0
0
0
0
0
0
0
0
0
0
0
-2.42581e-06
-0.000559806
-0.00207155
-0.00464238
-0.00809061
-0.012552
-0.0179301
-0.0233101
-0.0288737
-0.035343
-0.0433433
-0.0530653
-0.0666066
-0.0800884
-0.114987
-0.131642
-0.219762
-0.289841
)
;
    }
    defaultFaces
    {
        type            empty;
    }
}


// ************************************************************************* //
