/*--------------------------------*- C++ -*----------------------------------*\
  =========                 |
  \\      /  F ield         | OpenFOAM: The Open Source CFD Toolbox
   \\    /   O peration     | Website:  https://openfoam.org
    \\  /    A nd           | Version:  13
     \\/     M anipulation  |
\*---------------------------------------------------------------------------*/
FoamFile
{
    format      ascii;
    class       volScalarField;
    location    "0.7";
    object      p_rgh;
}
// * * * * * * * * * * * * * * * * * * * * * * * * * * * * * * * * * * * * * //

dimensions      [1 -1 -2 0 0 0 0];

internalField   nonuniform List<scalar> 
2268
(
535.433
535.035
536.962
541.553
550.665
566.096
587.669
611.525
634.517
656.39
677.706
698.573
718.838
738.31
756.759
773.542
788.306
799.149
804.394
804.399
811.244
839.047
866.471
534.952
534.047
535.84
540.332
549.181
564.668
586.666
611.079
634.406
656.407
677.768
698.655
718.939
738.436
756.979
774.052
789.442
801.602
804.816
799.3
803.279
826.564
860.655
532.998
531.86
533.892
538.253
546.424
561.752
584.475
610.13
634.23
656.488
677.958
698.874
719.121
738.511
756.888
774.001
789.618
803.598
807.971
798.471
797.051
815.736
855.765
530.238
528.963
531.163
535.182
542.29
557.265
581.271
608.984
634.224
656.788
678.334
699.281
719.528
738.878
757.201
774.319
789.986
803.698
812.719
808.659
801.751
821.613
855.511
527.377
525.829
527.937
531.552
537.855
552.481
578.46
608.267
634.595
657.373
678.98
699.936
720.174
739.51
757.864
775.084
790.881
804.661
815.473
820.202
821.599
836.117
857.882
524.549
522.721
524.309
527.559
533.757
549.409
576.887
607.979
635.114
658.132
679.89
700.846
721.043
740.344
758.765
776.146
792.21
806.513
818.748
827.123
834.967
843.271
860.113
521.763
520.769
521.423
524.313
531.796
548.941
576.082
606.896
634.922
658.447
680.892
702.056
722.206
741.424
759.886
777.438
793.781
808.418
821.546
831.888
841.879
849.813
863.718
507.041
491.274
477.376
467.926
472.34
494.245
540.435
599.164
634.039
658.962
681.983
703.401
723.448
742.466
761.068
778.936
795.715
810.558
824.194
836.194
847.784
856.09
870.117
777.825
646.953
689.395
795.135
892.636
940.768
969.778
913.011
918.131
873.868
685.765
527.043
444.484
418.556
448.522
578.338
804.425
946.805
981.954
766.278
601.883
656.939
785.237
891.293
946.992
969.873
880.469
915.225
824.696
578.363
429.289
394.337
400.657
427.818
524.285
723.554
925.82
989.027
731.485
553.146
631.584
771.869
890.711
958.239
984.928
911.574
844.718
605.979
348.817
299.16
294.595
301.415
314.229
357.035
519.876
869.174
999.266
687.982
511.962
607.976
757.98
886.803
978.638
1030.51
954.117
682.424
350.734
283.421
277.909
277.362
278.067
279.672
284.26
326.492
669.684
999.397
598.008
417.346
580.58
744.955
875.531
998.947
1128.57
974.245
511.485
288.949
278.119
276.992
277.067
277.882
279.252
281.155
292.002
435.378
982.347
569.974
434.773
589.443
725.981
845.874
989.461
1205.53
918.16
355.485
280.469
276.887
276.498
276.798
277.747
279.163
280.706
282.836
340.874
929.012
586.209
573.56
622.5
678.529
776.788
934.946
1220.57
792.813
294.789
277.947
276.361
276.119
276.551
277.546
279.047
280.672
280.997
302.764
806.7
729.539
681.097
617.548
564.094
518.121
813.048
1161.05
662.512
283.859
276.825
275.967
275.812
276.308
277.319
278.953
280.255
280.925
281.317
534.586
172.06
170.673
174.546
187.913
222.814
292.563
389.679
494.507
584.51
649.783
683.658
705.944
726.075
744.469
762.954
781.009
797.842
813.808
828.276
842.408
856.337
865.945
876.366
9.07123
18.5134
32.1875
48.2153
64.6213
77.5741
95.5303
142.452
227.922
343.117
469.11
575.654
645.89
697.221
756.945
784.475
803.037
819.717
835.063
852.985
872.055
883.323
882.214
7.66725
7.21505
7.16362
7.03566
6.89717
6.87544
6.88782
7.00036
7.04627
11.0683
48.6233
107.174
173.661
232.808
307.015
421.283
514.947
558.483
598.316
702.972
816.921
872.325
869.145
7.11653
6.88406
6.8885
6.83296
6.76436
6.74189
6.80345
6.888
6.93939
6.97035
6.97913
7.00649
7.09575
7.24931
7.30414
7.48928
14.8732
59.2841
117.846
278.203
549.279
711.787
440.308
6.95905
6.76693
6.79095
6.75058
6.70649
6.68508
6.71432
6.77645
6.82874
6.86202
6.87842
6.89822
6.91531
6.92235
7.00664
7.52713
11.7727
133.303
267.717
291.469
166.878
40.6062
40.4313
6.88889
6.78776
6.7499
6.71862
6.70041
6.69848
6.73941
6.77587
6.80485
6.8263
6.83742
6.83762
6.82773
6.83014
6.80775
6.92376
18.71
113.978
138.191
71.1833
55.5561
64.5376
81.8725
6.80467
6.77644
6.73113
6.70087
6.68909
6.68869
6.70039
6.71331
6.72404
6.73099
6.73132
6.72328
6.69935
6.65613
6.66481
6.7509
6.48039
6.34212
6.42556
8.3074
149.048
397.767
473.053
6.71567
6.71979
6.69633
6.67325
6.6594
6.65283
6.65455
6.65835
6.65611
6.64676
6.63136
6.60866
6.57411
6.5249
6.46601
6.406
6.39352
6.32827
6.24419
6.54589
8.11549
44.0715
382.681
6.64416
6.6512
6.63769
6.62365
6.61057
6.60101
6.59729
6.59412
6.58538
6.56987
6.5468
6.51594
6.47663
6.4277
6.36759
6.31269
6.27879
6.22185
6.11208
6.05928
6.49658
9.19021
119.626
6.57981
6.58109
6.57064
6.56091
6.54968
6.53963
6.53127
6.52154
6.50792
6.48941
6.4643
6.43158
6.39119
6.34342
6.28804
6.23072
6.18195
6.13341
6.06333
6.03246
6.58895
11.2446
230.102
6.51493
6.5134
6.50516
6.4966
6.48625
6.47503
6.4634
6.44955
6.43245
6.41093
6.38336
6.34882
6.30738
6.25834
6.2027
6.14118
6.07709
6.00936
5.92243
5.82996
6.24618
10.6414
218.74
6.45192
6.44935
6.44266
6.43433
6.42395
6.41145
6.39746
6.38081
6.36071
6.336
6.3056
6.26855
6.22438
6.17276
6.11306
6.04422
5.96491
5.87231
5.75609
5.66966
5.96695
7.54517
9.86894
6.39197
6.38883
6.38294
6.37413
6.36349
6.34987
6.33401
6.31495
6.29205
6.26446
6.23138
6.1918
6.14482
6.08944
6.02398
5.94648
5.85458
5.74469
5.61018
5.47193
5.5237
10.7044
11.2783
6.33483
6.33165
6.32628
6.31633
6.30525
6.29082
6.27344
6.25242
6.22728
6.19731
6.16171
6.11945
6.06938
6.00999
5.93901
5.85363
5.75079
5.62543
5.46538
5.23972
4.99461
9.65051
12.1799
6.28068
6.27754
6.27212
6.26201
6.2503
6.23507
6.2165
6.19403
6.1672
6.13531
6.09754
6.05282
5.99986
5.93691
5.86132
5.76959
5.65768
5.51958
5.34302
5.10053
4.86137
8.20536
12.7811
6.2298
6.22656
6.22091
6.21125
6.19886
6.18298
6.16356
6.14006
6.11201
6.07873
6.03941
5.99296
5.93797
5.87255
5.79397
5.69822
5.58024
5.43259
5.25551
4.99723
4.75849
5.17007
11.4697
6.18233
6.17902
6.17315
6.16361
6.15089
6.13465
6.11469
6.09056
6.06176
6.02768
5.98759
5.94037
5.88455
5.81825
5.73886
5.64273
5.52495
5.37908
5.19424
4.94038
4.59612
3.97073
4.0373
6.13819
6.13481
6.1289
6.11938
6.10653
6.09013
6.06996
6.04561
6.01663
5.98243
5.94225
5.89506
5.83961
5.77418
5.69638
5.60308
5.48988
5.35104
5.17773
4.95087
4.63509
4.16
3.62469
6.09732
6.09393
6.08806
6.07861
6.0658
6.04946
6.02937
6.00518
5.97649
5.94275
5.90323
5.85706
5.80315
5.74011
5.66596
5.57817
5.47343
5.34753
5.19525
5.00756
4.76885
4.44019
4.02029
6.05964
6.05629
6.05053
6.04123
6.02863
6.01257
5.99284
5.96915
5.94117
5.9084
5.87022
5.8259
5.77456
5.71512
5.64607
5.56556
5.47144
5.36112
5.23182
5.08024
4.90177
4.68762
4.43091
6.02508
6.02178
6.01619
6.00714
5.99489
5.97931
5.96019
5.93732
5.91039
5.87902
5.84271
5.80087
5.75283
5.69778
5.63466
5.56226
5.47931
5.38451
5.27669
5.15513
5.02003
4.87332
4.7162
5.99351
5.9903
5.98493
5.97621
5.96444
5.9495
5.93121
5.9094
5.88384
5.8542
5.82012
5.78114
5.73683
5.68659
5.62974
5.56555
5.49341
5.41284
5.32366
5.22623
5.12202
5.01434
4.90676
5.96478
5.96171
5.95659
5.94828
5.93711
5.92294
5.90564
5.88509
5.86112
5.83347
5.80183
5.76594
5.72553
5.68023
5.62961
5.5733
5.51114
5.44315
5.36968
5.29156
5.21045
5.12927
5.05161
5.93874
5.93583
5.93101
5.92317
5.91267
5.89937
5.88318
5.86404
5.84182
5.8163
5.78726
5.75455
5.71805
5.67756
5.63288
5.5839
5.5307
5.4736
5.41322
5.35056
5.28722
5.22565
5.1687
5.91521
5.91249
5.90798
5.90067
5.89091
5.87855
5.86355
5.8459
5.82549
5.80216
5.77576
5.74623
5.71353
5.67763
5.63846
5.59611
5.55081
5.50302
5.45343
5.40303
5.35324
5.30601
5.26338
5.89402
5.89152
5.88732
5.88057
5.87158
5.86019
5.84643
5.83029
5.81169
5.79052
5.76672
5.74028
5.71122
5.67959
5.64546
5.60901
5.57057
5.53064
5.48988
5.44919
5.40973
5.37302
5.34055
5.875
5.87269
5.86883
5.86263
5.8544
5.84402
5.8315
5.81686
5.80003
5.78095
5.75964
5.73613
5.71048
5.68279
5.6532
5.62197
5.58944
5.55611
5.52258
5.4896
5.45814
5.42938
5.4044
5.85793
5.8558
5.8523
5.84665
5.83917
5.82977
5.81848
5.80529
5.79016
5.77307
5.75412
5.73336
5.71087
5.68677
5.66126
5.6346
5.60714
5.57934
5.55173
5.52494
5.49974
5.47706
5.45768
5.84261
5.84064
5.83751
5.8324
5.82567
5.81723
5.80713
5.79533
5.78181
5.76662
5.74988
5.73167
5.71207
5.69122
5.66932
5.64666
5.62354
5.60038
5.57761
5.55578
5.53552
5.51754
5.50239
5.82882
5.82702
5.82425
5.81967
5.81368
5.80617
5.7972
5.78671
5.77473
5.76134
5.74667
5.7308
5.71382
5.69589
5.67719
5.65799
5.63858
5.61929
5.60051
5.58269
5.56634
5.552
5.54009
5.81642
5.81478
5.81234
5.80824
5.80299
5.79637
5.78845
5.77921
5.76868
5.75699
5.74424
5.73051
5.7159
5.70057
5.68469
5.66849
5.65224
5.63621
5.62073
5.60618
5.59296
5.58149
5.57207
5.80529
5.8038
5.80163
5.79799
5.79341
5.78762
5.78069
5.7726
5.76346
5.75336
5.74237
5.7306
5.71812
5.7051
5.6917
5.67812
5.66458
5.6513
5.63857
5.6267
5.61602
5.60683
5.59936
5.79528
5.79393
5.79199
5.78879
5.78483
5.77978
5.77375
5.76676
5.75891
5.75026
5.7409
5.73089
5.72034
5.70938
5.69817
5.68687
5.67566
5.66474
5.65433
5.64469
5.63608
5.62875
5.62282
5.78618
5.78499
5.78328
5.78051
5.7771
5.77273
5.76755
5.76157
5.7549
5.74759
5.7397
5.73128
5.72245
5.71332
5.70404
5.69474
5.68555
5.67663
5.66819
5.66043
5.65356
5.64775
5.6431
5.77782
5.77682
5.77533
5.77298
5.77007
5.76633
5.76194
5.75691
5.75133
5.74523
5.73865
5.73166
5.72435
5.71685
5.70926
5.70168
5.69424
5.68706
5.6803
5.67414
5.66873
5.66419
5.66061
5.77004
5.76928
5.76801
5.76603
5.76359
5.76045
5.75682
5.75267
5.74807
5.74305
5.73765
5.73193
5.72597
5.71989
5.71378
5.70771
5.70177
5.69607
5.69075
5.68594
5.68175
5.6783
5.67561
5.76276
5.76225
5.76117
5.75954
5.75755
5.75499
5.75207
5.74871
5.74501
5.74096
5.73661
5.73202
5.72727
5.72245
5.71762
5.71284
5.7082
5.70377
5.69966
5.69599
5.69283
5.69027
5.6883
5.75591
5.75568
5.75475
5.75344
5.75188
5.74987
5.7476
5.74497
5.74206
5.73889
5.73549
5.73192
5.72825
5.72454
5.72083
5.71718
5.71364
5.71029
5.70721
5.70449
5.70218
5.70033
5.69892
5.74944
5.74948
5.74866
5.74768
5.74653
5.74503
5.74334
5.74135
5.73917
5.73679
5.73426
5.73163
5.72893
5.72621
5.72349
5.72081
5.71822
5.71579
5.71358
5.71165
5.71004
5.70876
5.7078
5.74329
5.74356
5.74286
5.7422
5.74142
5.74038
5.73921
5.73781
5.7363
5.73465
5.73293
5.73115
5.72933
5.72748
5.72563
5.72381
5.72206
5.72044
5.71897
5.71771
5.71667
5.71586
5.71524
5.73744
5.73783
5.73726
5.73691
5.73647
5.73585
5.73516
5.73433
5.73344
5.73249
5.73151
5.7305
5.72946
5.7284
5.72734
5.7263
5.7253
5.72438
5.72357
5.72287
5.72231
5.72188
5.72155
5.7316
5.73204
5.73177
5.73168
5.73154
5.73132
5.73109
5.73081
5.73053
5.73023
5.72993
5.72961
5.72929
5.72895
5.72862
5.7283
5.728
5.72772
5.72748
5.72728
5.72712
5.727
5.72691
879.396
874.765
865.38
850.318
881.564
880.257
874.89
854.488
825.537
811.515
813.246
582.226
55.5663
55.6111
55.3657
49.3115
46.8355
56.0544
62.4181
46.2004
244.306
371.349
173.345
40.1245
588.252
595.694
244.596
63.8131
702.713
757.799
279.697
44.4971
807.825
883.45
699.821
92.7825
951.249
954.544
969.642
930.463
970.211
1050.1
1061.39
1069.05
30.2086
660.283
1052.28
1127.8
4.38698
4.15093
3.09794
1.96369
3.60444
3.43873
3.24216
3.01228
4.51016
3.13067
2.93288
2.72985
10.4758
5.36259
2.6831
2.51919
9.11577
9.66724
9.1777
2.93841
3.47044
4.20091
7.68276
7.15676
3.73399
3.56428
3.47957
4.05461
4.24519
4.13725
4.03861
3.96265
4.60907
4.54684
4.49295
4.45402
4.83744
4.79962
4.76875
4.74602
5.00347
4.97756
4.95654
4.9408
5.13444
5.11603
5.101
5.08965
5.23823
5.22483
5.21393
5.20569
5.32173
5.31183
5.30383
5.29782
5.3902
5.3828
5.37686
5.37245
5.44688
5.44129
5.43686
5.43364
5.4941
5.48986
5.48654
5.4842
5.53369
5.53045
5.52794
5.52621
5.56708
5.56458
5.56265
5.56133
5.59544
5.59348
5.59197
5.59095
5.61973
5.61819
5.61702
5.61626
5.64069
5.63951
5.63865
5.63811
5.65881
5.65795
5.65736
5.65702
5.67432
5.67373
5.67333
5.67311
5.68739
5.68699
5.68671
5.68654
5.69828
5.69799
5.69778
5.69764
5.70735
5.70714
5.70698
5.70686
5.71495
5.71482
5.71471
5.71461
5.7214
5.72133
5.72127
5.7212
5.72686
5.72684
5.72681
5.72677
816.187
720.452
573.581
249.248
131.937
464.322
993.306
579.469
276.803
275.801
275.364
275.392
275.962
276.996
279.028
280.144
279.157
272.539
401.88
767.996
510.163
115.018
45.5626
40.7968
292.24
872.452
676.867
275.144
275.46
275.04
275.4
275.774
277.062
299.49
359.202
292.076
266.838
405.603
176.11
37.7582
37.2899
38.7919
123.932
367.192
844.088
907.388
277.874
275.912
275.442
275.703
275.779
323.634
646.611
787.546
490.885
226.409
624.786
41.1388
36.548
33.8855
34.4615
136.895
398.359
705.383
988.232
644.582
277.127
276.729
276.723
295.965
798.303
913.665
847.988
608.927
157.4
639.743
36.7967
31.6896
29.3002
29.3394
31.4805
41.0463
267.059
987.29
1060.03
444.971
315.185
288.894
800.734
1064.14
947.606
878.425
496.567
126.26
637.316
32.8918
26.4078
24.5229
26.0939
30.2068
33.8358
36.1884
387.938
1066.65
1147.64
570.426
483.751
1317.76
1154.56
1001.56
954.382
332.377
133.651
751.277
32.6152
23.8799
21.8858
25.4207
30.2877
33.1512
34.2384
191.584
1075.25
1227.3
666.453
982.326
1425.36
1210.04
1090.93
721.836
358.418
291.889
931.59
36.0584
27.0296
23.4112
26.1845
30.7372
33.9691
36.7711
385.085
1060.66
665.664
619.97
855.052
752.026
1234.41
1165.43
468.887
436.735
780.184
1050.05
45.2886
36.7477
50.8194
73.3258
61.228
56.9908
62.6679
236.884
528.272
740.652
674.056
277.985
147.577
864.495
1234.58
881.199
671.588
987.872
1160.45
269.231
45.8644
43.4723
102.17
283.585
407.243
430.909
546.518
685.024
701.104
478.255
26.04
22.3804
99.9027
970.029
1310.98
1377.09
1358.55
1540.44
1076.44
927.364
400.949
357.457
694.744
1017.92
1058.19
1090.24
1075.33
537.964
47.2014
12.7576
12.2863
11.0642
178.083
1325.17
1728.86
1781.38
1773.61
1119.5
1150.63
1155.2
1152.87
1163.69
1004.36
580.955
235.38
184.17
61.5019
6.23171
8.77162
8.73569
8.11745
7.76651
70.1213
752.456
1675.42
1835.65
214.399
1000.75
1186
762.121
100.439
12.9936
12.3253
14.6917
14.4185
5.11054
5.77835
7.16843
7.05297
6.75723
6.32735
6.91505
12.9251
427.063
1921.71
2.67097
2.67877
2.88451
3.08691
12.1776
12.6647
14.1246
14.5953
7.0265
4.90026
5.69662
6.0687
5.96517
5.91444
5.83019
5.90817
7.50938
60.2712
1393.81
2.53548
2.72318
3.11826
3.61814
5.10299
6.30218
4.71202
4.89374
5.10612
5.30381
5.45755
5.40368
5.38263
5.44429
5.51343
5.57668
5.98733
23.7396
72.1267
2.34975
2.64115
3.26098
3.93924
4.46005
4.75831
4.93166
5.14515
5.3252
5.37577
5.30391
5.15405
5.21316
5.30565
5.3982
5.40663
5.1887
7.969
57.4347
2.05702
2.51275
3.2993
4.07385
4.6239
4.90078
5.04056
5.17614
5.28509
5.31087
5.25208
5.17821
5.20606
5.3377
5.43111
5.41285
5.41405
8.81108
230.241
5.44313
3.1274
3.54615
4.17067
4.64624
4.91562
5.07394
5.20073
5.28541
5.32168
5.30931
5.30644
5.35282
5.43604
5.53745
5.58988
5.69356
5.81848
238.681
4.61165
4.27406
3.93117
4.33963
4.71303
4.94237
5.08826
5.19776
5.284
5.3459
5.38602
5.42204
5.47716
5.55425
5.65526
5.73855
5.84543
5.75106
248.895
3.88958
3.95368
4.22765
4.55444
4.80744
4.98433
5.11235
5.21605
5.30385
5.3761
5.43488
5.48963
5.55346
5.63221
5.73639
5.8382
5.95139
5.89064
258.578
4.40707
4.42514
4.55113
4.73968
4.91226
5.04721
5.15521
5.24756
5.32899
5.4007
5.46572
5.53155
5.6017
5.68121
5.78678
5.89177
6.02386
5.97627
266.423
4.71851
4.72883
4.7919
4.90093
5.01601
5.11819
5.20688
5.28608
5.35827
5.42489
5.49083
5.55743
5.63026
5.70786
5.80972
5.89937
6.05573
6.03696
193.267
4.92223
4.92225
4.96523
5.0345
5.11432
5.19208
5.26384
5.33003
5.39165
5.45014
5.51066
5.57405
5.64471
5.71846
5.80808
5.84677
6.01464
6.53158
10.5845
5.07622
5.07609
5.10251
5.14875
5.20567
5.26496
5.32214
5.37565
5.42551
5.47346
5.52375
5.58059
5.64453
5.70919
5.78274
5.76354
7.09296
9.1586
8.31639
5.19593
5.19578
5.21343
5.24601
5.28794
5.33356
5.37859
5.42034
5.45797
5.49378
5.53283
5.57901
5.63399
5.68716
5.7417
5.69625
9.87513
10.7277
9.8491
5.29078
5.29106
5.30408
5.32842
5.36053
5.39629
5.4317
5.46306
5.48835
5.51046
5.5363
5.57171
5.61654
5.65255
5.6918
5.65272
9.84845
7.19671
42.3589
5.36742
5.36826
5.37871
5.39792
5.4235
5.45236
5.4806
5.50303
5.51576
5.52254
5.53299
5.55608
5.59131
5.62357
5.6554
5.64126
9.71135
5.63886
251.664
5.43012
5.43148
5.44027
5.45604
5.47712
5.50121
5.52441
5.53922
5.53959
5.53056
5.52517
5.53565
5.56598
5.60232
5.63926
5.66103
6.54067
5.65234
280.346
5.48178
5.48346
5.49098
5.50413
5.52184
5.5425
5.5622
5.57091
5.56127
5.53889
5.51961
5.52078
5.54952
5.5928
5.63475
5.87833
5.67511
5.66405
289.805
5.52452
5.52627
5.53268
5.54361
5.55847
5.57631
5.59352
5.59974
5.58747
5.55387
5.52541
5.52213
5.54831
5.59864
5.64398
6.44727
5.78943
5.67813
299.705
5.56011
5.56174
5.56708
5.57602
5.58829
5.60339
5.61868
5.62794
5.61302
5.57934
5.55036
5.54792
5.57596
5.63626
5.67487
6.27736
5.81337
5.69861
319.812
5.59006
5.59148
5.59583
5.60299
5.6128
5.62504
5.63824
5.64937
5.64069
5.61391
5.59278
5.5936
5.63055
5.70356
5.72197
5.6996
5.76815
5.71896
329.502
5.61566
5.61696
5.62031
5.62585
5.63333
5.64255
5.65277
5.6612
5.66345
5.64792
5.64662
5.64652
5.72455
5.81197
5.81953
5.72885
5.79031
5.73529
338.815
5.63769
5.63842
5.64131
5.64548
5.65084
5.6571
5.66374
5.66845
5.67288
5.66759
5.71356
5.79351
5.85152
5.86771
5.82371
5.73456
5.79247
5.94352
347.952
5.65679
5.65748
5.65942
5.66228
5.66581
5.66956
5.67314
5.67513
5.67505
5.67368
5.71747
5.81914
5.82214
5.75009
5.71007
5.72601
5.77957
5.86934
357.029
5.67297
5.67344
5.67462
5.67637
5.67837
5.6802
5.68167
5.68158
5.67915
5.67595
5.67245
5.67165
5.6707
5.67556
5.69363
5.70275
5.7685
7.03715
365.698
5.68641
5.68659
5.68712
5.68793
5.68866
5.68896
5.68883
5.68728
5.68347
5.67909
5.67513
5.67087
5.66847
5.66351
5.66638
5.65641
5.66353
14.0767
366.363
5.69748
5.6974
5.69742
5.69742
5.69709
5.69614
5.69468
5.69185
5.68716
5.682
5.67679
5.67026
5.66326
5.64919
5.63675
5.60037
5.53507
18.6063
69.8551
5.70669
5.70642
5.70602
5.70538
5.70421
5.70228
5.69974
5.69596
5.69078
5.68508
5.67873
5.67034
5.66018
5.64113
5.62072
5.56868
5.48363
9.22883
5.32351
5.71443
5.71404
5.71337
5.71224
5.71047
5.70791
5.70465
5.70032
5.69492
5.6889
5.6819
5.67275
5.66132
5.64229
5.62302
5.58008
5.53125
5.44391
5.42339
5.72104
5.72063
5.71982
5.7184
5.71627
5.71337
5.70968
5.70502
5.69948
5.69328
5.68608
5.67699
5.66562
5.64893
5.6321
5.59879
5.57558
5.53168
5.49151
5.72667
5.72639
5.7257
5.7242
5.72183
5.71862
5.71448
5.70939
5.7038
5.69778
5.69089
5.68245
5.67197
5.6577
5.64253
5.61203
5.59202
5.53557
5.48189
)
;

boundaryField
{
    leftWall
    {
        type            fixedFluxPressure;
        gradient        uniform 0;
        value           nonuniform List<scalar> 
50
(
535.433
534.952
532.998
530.238
527.377
524.549
521.763
507.041
172.06
9.07123
7.66725
7.11653
6.95905
6.88889
6.80467
6.71567
6.64416
6.57981
6.51493
6.45192
6.39197
6.33483
6.28068
6.2298
6.18233
6.13819
6.09732
6.05964
6.02508
5.99351
5.96478
5.93874
5.91521
5.89402
5.875
5.85793
5.84261
5.82882
5.81642
5.80529
5.79528
5.78618
5.77782
5.77004
5.76276
5.75591
5.74944
5.74329
5.73744
5.7316
)
;
    }
    rightWall
    {
        type            fixedFluxPressure;
        gradient        uniform 0;
        value           nonuniform List<scalar> 
50
(
981.954
989.027
999.266
999.397
982.347
929.012
806.7
534.586
401.88
405.603
624.786
639.743
637.316
751.277
931.59
1050.05
1160.45
1540.44
1773.61
1835.65
1921.71
1393.81
72.1267
57.4347
230.241
238.681
248.895
258.578
266.423
193.267
10.5845
8.31639
9.8491
42.3589
251.664
280.346
289.805
299.705
319.812
329.502
338.815
347.952
357.029
365.698
366.363
69.8551
5.32351
5.42339
5.49151
5.48189
)
;
    }
    lowerWall
    {
        type            fixedFluxPressure;
        gradient        uniform 0;
        value           nonuniform List<scalar> 
62
(
535.433
535.035
536.962
541.553
550.665
566.096
587.669
611.525
634.517
656.39
677.706
698.573
718.838
738.31
756.759
773.542
788.306
799.149
804.394
804.399
811.244
839.047
866.471
866.471
860.655
855.765
855.511
857.882
860.113
863.718
870.117
879.396
874.765
865.38
850.318
777.825
766.278
731.485
687.982
598.008
569.974
586.209
729.539
777.825
646.953
689.395
795.135
892.636
940.768
969.778
913.011
918.131
873.868
685.765
527.043
444.484
418.556
448.522
578.338
804.425
946.805
981.954
)
;
    }
    atmosphere
    {
        type            prghTotalPressure;
        rho             rho;
        psi             none;
        gamma           1;
        p0              uniform 0;
        value           nonuniform List<scalar> 
46
(
5.72904
5.72904
5.72904
5.72904
5.72904
5.72904
5.72904
5.72904
5.72904
5.72904
5.72904
5.72904
5.72904
5.72904
5.72904
5.72904
5.72904
5.72904
5.72904
5.72904
5.72904
5.72904
5.72904
5.72904
5.72904
5.72904
5.72904
5.72904
5.72904
5.72848
5.72697
5.7244
5.72095
5.71649
5.71111
5.70573
5.70017
5.6937
5.6857
5.67597
5.66243
5.64895
5.61405
5.5974
5.50928
5.4392
)
;
        rho             rho;
    }
    defaultFaces
    {
        type            empty;
    }
}


// ************************************************************************* //
