/*--------------------------------*- C++ -*----------------------------------*\
  =========                 |
  \\      /  F ield         | OpenFOAM: The Open Source CFD Toolbox
   \\    /   O peration     | Website:  https://openfoam.org
    \\  /    A nd           | Version:  13
     \\/     M anipulation  |
\*---------------------------------------------------------------------------*/
FoamFile
{
    format      ascii;
    class       surfaceScalarField;
    location    "0.7";
    object      phi;
}
// * * * * * * * * * * * * * * * * * * * * * * * * * * * * * * * * * * * * * //

dimensions      [0 3 -1 0 0 0 0];

internalField   nonuniform List<scalar> 
4432
(
-3.57094e-06
3.57094e-06
-7.25825e-06
3.68732e-06
-9.70046e-06
2.44221e-06
-1.13747e-05
1.67424e-06
-1.21887e-05
8.13963e-07
-1.14417e-05
-7.46982e-07
-8.97365e-06
-2.46803e-06
-5.87074e-06
-3.10291e-06
-3.47846e-06
-2.39229e-06
-2.29204e-06
-1.18642e-06
-2.2201e-06
-7.19421e-08
-3.041e-06
8.209e-07
-4.43984e-06
1.39884e-06
-6.28213e-06
1.84229e-06
-8.62264e-06
2.34051e-06
-1.14064e-05
2.78371e-06
-1.37265e-05
2.32013e-06
-1.56133e-05
1.88686e-06
-1.96833e-05
4.06997e-06
-2.53164e-05
5.63307e-06
-2.48291e-05
-4.87254e-07
-1.47021e-05
-1.0127e-05
-1.47021e-05
-4.59488e-06
8.16581e-06
-7.84751e-06
6.93996e-06
-9.72843e-06
4.32313e-06
-1.13521e-05
3.29786e-06
-1.24377e-05
1.89964e-06
-1.19402e-05
-1.24448e-06
-9.47532e-06
-4.93294e-06
-6.15936e-06
-6.41887e-06
-3.54025e-06
-5.0114e-06
-2.23372e-06
-2.49294e-06
-1.87725e-06
-4.28422e-07
-2.07874e-06
1.0224e-06
-2.64959e-06
1.96969e-06
-3.52623e-06
2.71894e-06
-4.85424e-06
3.66853e-06
-7.06296e-06
4.99242e-06
-1.07683e-05
6.02547e-06
-1.5777e-05
6.89555e-06
-2.03753e-05
8.66824e-06
-2.18324e-05
7.09025e-06
-1.84623e-05
-3.85737e-06
-1.05054e-05
-1.80839e-05
-2.52075e-05
-3.74521e-06
1.1911e-05
-6.39459e-06
9.58934e-06
-8.4016e-06
6.33015e-06
-1.05459e-05
5.44217e-06
-1.21505e-05
3.50425e-06
-1.1936e-05
-1.45902e-06
-9.72981e-06
-7.13911e-06
-6.62581e-06
-9.52286e-06
-4.06795e-06
-7.56927e-06
-2.74324e-06
-3.81765e-06
-2.46496e-06
-7.06707e-07
-2.73838e-06
1.29582e-06
-3.16576e-06
2.39707e-06
-3.47827e-06
3.03145e-06
-3.54368e-06
3.73394e-06
-3.61123e-06
5.05997e-06
-4.56229e-06
6.97653e-06
-6.88762e-06
9.22087e-06
-9.15638e-06
1.0937e-05
-9.73517e-06
7.66904e-06
-7.95722e-06
-5.63533e-06
-4.10432e-06
-2.19368e-05
-2.93119e-05
-2.33395e-06
1.4245e-05
-4.25624e-06
1.15116e-05
-6.12525e-06
8.19916e-06
-8.02075e-06
7.33766e-06
-9.19306e-06
4.67655e-06
-8.88784e-06
-1.76424e-06
-7.46699e-06
-8.55996e-06
-5.76506e-06
-1.12248e-05
-4.33229e-06
-9.00204e-06
-3.46818e-06
-4.68175e-06
-3.29377e-06
-8.81121e-07
-3.61557e-06
1.61762e-06
-4.10952e-06
2.89102e-06
-4.4046e-06
3.32653e-06
-4.24589e-06
3.57524e-06
-3.4942e-06
4.30828e-06
-2.21657e-06
5.6989e-06
-7.75642e-07
7.77994e-06
8.4712e-07
9.31424e-06
2.48984e-06
6.02633e-06
2.57437e-06
-5.71986e-06
1.92302e-06
-2.12855e-05
-2.73888e-05
-5.15456e-07
1.47604e-05
-1.03868e-06
1.20349e-05
-2.09703e-06
9.25751e-06
-2.8237e-06
8.06434e-06
-2.53527e-06
4.38811e-06
-1.73197e-06
-2.56754e-06
-1.7074e-06
-8.58454e-06
-2.65572e-06
-1.02765e-05
-3.59514e-06
-8.06263e-06
-4.06382e-06
-4.21307e-06
-4.30181e-06
-6.43133e-07
-4.63964e-06
1.95546e-06
-5.048e-06
3.29938e-06
-5.24166e-06
3.5202e-06
-4.97511e-06
3.3087e-06
-4.21259e-06
3.54575e-06
-2.61414e-06
4.10046e-06
1.07689e-07
5.05811e-06
4.02206e-06
5.39987e-06
7.54732e-06
2.50107e-06
7.62738e-06
-5.79992e-06
4.74316e-06
-1.84013e-05
-2.26457e-05
1.79095e-06
1.29695e-05
3.08709e-06
1.07387e-05
3.83337e-06
8.51123e-06
5.03333e-06
6.86439e-06
6.73874e-06
2.68269e-06
7.26472e-06
-3.09352e-06
5.34536e-06
-6.66517e-06
1.76342e-06
-6.69453e-06
-1.90638e-06
-4.39283e-06
-4.24532e-06
-1.87412e-06
-5.2611e-06
3.72641e-07
-5.76447e-06
2.45884e-06
-6.07073e-06
3.60563e-06
-6.0386e-06
3.48806e-06
-5.52933e-06
2.79944e-06
-4.64208e-06
2.65849e-06
-3.28881e-06
2.74718e-06
-1.05788e-06
2.82719e-06
2.39618e-06
1.9458e-06
6.07876e-06
-1.18152e-06
6.97076e-06
-6.69191e-06
4.88115e-06
-1.63117e-05
-1.77645e-05
3.50361e-06
9.46588e-06
7.32846e-06
6.91387e-06
1.11373e-05
4.7024e-06
1.48761e-05
3.1256e-06
1.70666e-05
4.92115e-07
1.55491e-05
-1.57596e-06
1.0697e-05
-1.81313e-06
4.82425e-06
-8.21748e-07
-4.24386e-07
8.55804e-07
-4.03582e-06
1.73731e-06
-5.95313e-06
2.28995e-06
-6.87397e-06
3.37968e-06
-7.1781e-06
3.90977e-06
-6.9243e-06
3.23426e-06
-6.03742e-06
1.91256e-06
-4.88271e-06
1.50379e-06
-3.53784e-06
1.40231e-06
-1.79071e-06
1.08006e-06
4.95231e-07
-3.40138e-07
3.09226e-06
-3.77855e-06
4.28535e-06
-7.885e-06
3.76033e-06
-1.57867e-05
-1.40042e-05
6.49604e-06
2.96984e-06
1.38994e-05
-4.89443e-07
1.90777e-05
-4.75915e-07
2.16885e-05
5.14734e-07
2.07221e-05
1.45856e-06
1.59101e-05
3.23602e-06
9.39481e-06
4.70218e-06
3.58457e-06
4.98848e-06
-7.31746e-07
5.17212e-06
-3.77738e-06
4.78295e-06
-5.83491e-06
4.34748e-06
-7.31538e-06
4.86015e-06
-8.049e-06
4.64339e-06
-7.88228e-06
3.06753e-06
-6.73579e-06
7.66068e-07
-5.30255e-06
7.05481e-08
-3.8014e-06
-9.8841e-08
-2.12425e-06
-5.97093e-07
-3.3874e-07
-2.12565e-06
1.30703e-06
-5.42433e-06
2.26583e-06
-8.8438e-06
2.51204e-06
-1.60329e-05
-1.14922e-05
-2.78653e-05
2.78653e-05
-4.96959e-05
2.18307e-05
-4.51355e-05
-4.56044e-06
-3.0982e-05
-1.41535e-05
-1.84831e-05
-1.24989e-05
-7.36776e-06
-1.11153e-05
1.82451e-05
-2.56129e-05
2.36481e-05
-5.40297e-06
-8.88089e-06
3.2529e-05
-6.5611e-05
5.67301e-05
-0.000111526
4.59153e-05
-0.000129035
1.75085e-05
-0.000127114
-1.92111e-06
-0.0001175
-9.61369e-06
-0.000104067
-1.34333e-05
-8.39496e-05
-2.01172e-05
-4.78245e-05
-3.61251e-05
-6.91141e-07
-4.71333e-05
-6.91133e-07
-3.2939e-05
6.08042e-05
-4.08259e-05
2.97176e-05
-2.99172e-05
-1.54691e-05
-1.69106e-05
-2.71601e-05
-6.02112e-06
-2.33884e-05
4.58657e-06
-2.1723e-05
2.05778e-05
-4.16042e-05
-5.37493e-06
2.05498e-05
-7.2759e-05
9.99131e-05
-0.000131952
0.000115924
-0.000155616
6.95792e-05
-0.000155562
1.74542e-05
-0.000149187
-8.29641e-06
-0.000139475
-1.93256e-05
-0.000125307
-2.76005e-05
-0.00010476
-4.0665e-05
-7.06021e-05
-7.02826e-05
-2.27054e-05
-9.50301e-05
-2.33965e-05
-2.25974e-05
8.34016e-05
-2.21196e-05
2.92398e-05
-1.17376e-05
-2.58511e-05
2.00062e-08
-3.89177e-05
6.59857e-06
-2.9967e-05
7.08053e-06
-2.2205e-05
-4.66198e-06
-2.98617e-05
-5.92932e-05
7.51811e-05
-0.000125138
0.000165757
-0.000167928
0.000158714
-0.000191444
9.30954e-05
-0.000199374
2.53847e-05
-0.000194003
-1.36679e-05
-0.000178856
-3.4473e-05
-0.0001574
-4.9056e-05
-0.00012958
-6.84853e-05
-9.09961e-05
-0.000108866
-3.95033e-05
-0.000146523
-6.28998e-05
-8.4523e-06
9.18539e-05
1.65831e-06
1.91292e-05
7.51506e-06
-3.17078e-05
1.5884e-05
-4.72867e-05
1.69261e-05
-3.10091e-05
4.57416e-06
-9.85304e-06
-2.74078e-05
2.12025e-06
-8.78044e-05
0.000135578
-0.000145757
0.00022371
-0.000171054
0.00018401
-0.00019628
0.000118322
-0.000219437
4.85414e-05
-0.000215726
-1.73786e-05
-0.000195897
-5.4302e-05
-0.000174374
-7.05788e-05
-0.000148678
-9.41812e-05
-0.000107837
-0.000149707
-4.65886e-05
-0.000207772
-0.000109488
4.29815e-06
8.75558e-05
1.63152e-05
7.11209e-06
2.55674e-05
-4.096e-05
3.11066e-05
-5.28259e-05
2.56251e-05
-2.55276e-05
1.66482e-06
1.41073e-05
-4.19896e-05
4.57746e-05
-0.0001023
0.000195888
-0.000146144
0.000267554
-0.000168735
0.000206601
-0.000195616
0.000145203
-0.000202167
5.50926e-05
-0.000185871
-3.36746e-05
-0.000161974
-7.81992e-05
-0.000135417
-9.71361e-05
-0.000122129
-0.000107469
-0.000110326
-0.00016151
-4.5022e-05
-0.000273076
-0.00015451
2.14288e-05
6.6127e-05
3.14095e-05
-2.86866e-06
4.0775e-05
-5.03254e-05
4.47508e-05
-5.68017e-05
3.42805e-05
-1.50573e-05
2.44154e-06
4.59462e-05
-4.42407e-05
9.24568e-05
-9.96453e-05
0.000251293
-0.000133447
0.000301356
-0.000156147
0.0002293
-0.000175132
0.000164189
-0.000162696
4.2657e-05
-0.000134288
-6.20831e-05
-9.7783e-05
-0.000114704
-5.4645e-05
-0.000140274
-3.62179e-05
-0.000125896
-6.81157e-05
-0.000129612
-3.83263e-05
-0.000302865
-0.000192837
3.10178e-05
3.51092e-05
4.34556e-05
-1.53065e-05
5.27494e-05
-5.96191e-05
5.61282e-05
-6.01805e-05
4.24118e-05
-1.3409e-06
6.42172e-06
8.19363e-05
-3.62204e-05
0.000135099
-7.28014e-05
0.000287874
-0.000105854
0.000334408
-0.000135448
0.000258895
-0.000143557
0.000172298
-0.000123079
2.21788e-05
-8.99322e-05
-9.523e-05
-5.07271e-05
-0.000153909
-2.21164e-06
-0.00018879
4.03202e-05
-0.000168428
6.93333e-06
-9.62253e-05
-2.90169e-05
-0.000266915
-0.000221854
3.0233e-05
4.87618e-06
4.8735e-05
-3.38085e-05
5.85907e-05
-6.94748e-05
6.21057e-05
-6.36955e-05
4.53199e-05
1.54449e-05
1.22423e-05
0.000115014
-2.5004e-05
0.000172345
-4.0887e-05
0.000303757
-6.99695e-05
0.000363491
-0.000101568
0.000290493
-0.000109595
0.000180325
-8.48782e-05
-2.53804e-06
-4.96576e-05
-0.000130451
-1.17049e-05
-0.000191862
2.15231e-05
-0.000222018
6.91429e-05
-0.000216048
7.1575e-05
-9.86573e-05
-1.73368e-05
-0.000178003
-0.00023919
5.21129e-06
-2.24145e-06
4.55358e-07
4.26649e-06
-5.82698e-06
5.80643e-06
-9.62717e-06
4.31492e-06
-1.09742e-05
2.80561e-06
-1.18568e-05
4.1186e-06
-1.27742e-05
5.6196e-06
-1.33183e-05
5.5326e-06
-1.30568e-05
4.91059e-06
-1.26995e-05
4.42569e-06
-1.32357e-05
4.88363e-06
-1.49856e-05
6.61008e-06
-1.67339e-05
6.39165e-06
-1.64195e-05
2.75313e-06
-1.34314e-05
-2.222e-06
-1.04673e-05
-2.89355e-06
-8.1368e-06
-2.42935e-06
-5.49753e-06
-3.23636e-06
-2.21997e-06
-5.4032e-06
7.06396e-07
-8.3507e-06
3.6384e-06
-1.17758e-05
5.29176e-06
-1.76862e-05
-1.82879e-05
1.20875e-05
-0.000112634
0.000110392
-0.000121782
1.3415e-05
-9.92408e-05
-1.6735e-05
-8.35897e-05
-1.13362e-05
-7.62155e-05
-4.56863e-06
-7.37398e-05
1.64298e-06
-7.22911e-05
4.17091e-06
-6.74883e-05
7.29751e-07
-5.72446e-05
-5.33315e-06
-4.43271e-05
-8.49176e-06
-3.15812e-05
-7.86232e-06
-2.32654e-05
-1.70569e-06
-1.67908e-05
-8.2937e-08
-1.0859e-05
-3.17867e-06
-6.99196e-06
-6.08904e-06
-5.36404e-06
-4.52147e-06
-4.33484e-06
-3.45856e-06
-1.57717e-06
-5.99402e-06
1.59975e-06
-8.58013e-06
2.51549e-06
-9.26643e-06
3.58542e-06
-1.28457e-05
5.99273e-06
-2.00935e-05
-2.46069e-05
1.23118e-05
-6.19212e-05
0.000172313
-0.00011276
6.42537e-05
-0.000153982
2.4487e-05
-0.000192808
2.74903e-05
-0.000221984
2.46069e-05
-0.000238591
1.82502e-05
-0.000241572
7.15219e-06
-0.00022976
-1.10827e-05
-0.00020122
-3.38727e-05
-0.000163618
-4.6094e-05
-0.000114591
-5.68897e-05
-8.38211e-05
-3.24754e-05
-7.11137e-05
-1.27904e-05
-6.38997e-05
-1.03927e-05
-5.22422e-05
-1.77465e-05
-3.65097e-05
-2.02539e-05
-2.66923e-05
-1.3276e-05
-1.82631e-05
-1.44232e-05
-1.14901e-05
-1.53531e-05
-8.48749e-06
-1.2269e-05
-7.9593e-06
-1.33739e-05
-6.45143e-06
-2.16014e-05
-2.477e-05
-6.28838e-06
-2.4419e-05
0.000196732
-6.6599e-05
0.000106434
-0.000108007
6.58952e-05
-0.000133331
5.28142e-05
-0.000148767
4.00433e-05
-0.000158242
2.77252e-05
-0.00016491
1.38201e-05
-0.000179949
3.95573e-06
-0.000214252
4.31001e-07
-0.000251607
-8.73954e-06
-0.000293224
-1.52725e-05
-0.000324967
-7.32546e-07
-0.000348112
1.03551e-05
-0.000353814
-4.69111e-06
-0.000338427
-3.31332e-05
-0.000302763
-5.59175e-05
-0.000251356
-6.46839e-05
-0.000203694
-6.20849e-05
-0.000164679
-5.43682e-05
-0.000135748
-4.11994e-05
-0.000117225
-3.18969e-05
-0.000112083
-2.67438e-05
-1.99063e-05
-0.000116947
1.97315e-05
0.000177001
-1.04536e-05
0.000136619
-3.16766e-05
8.71183e-05
-3.83973e-05
5.95351e-05
-4.21119e-05
4.37579e-05
-4.37673e-05
2.93806e-05
-4.07651e-05
1.08178e-05
-4.46005e-05
7.79118e-06
-6.54574e-05
2.12879e-05
-0.000107042
3.28447e-05
-0.000154118
3.18039e-05
-0.000190028
3.51778e-05
-0.000216473
3.68001e-05
-0.000243594
2.24295e-05
-0.000278572
1.84475e-06
-0.000304922
-2.95673e-05
-0.000292823
-7.67827e-05
-0.000269635
-8.5273e-05
-0.000255932
-6.80708e-05
-0.000256462
-4.067e-05
-0.000274092
-1.42662e-05
-0.000294977
-5.85934e-06
-1.93214e-05
-0.000295562
3.77671e-05
0.000139234
3.08214e-05
0.000143565
1.97689e-05
9.81709e-05
1.62516e-05
6.30526e-05
1.14169e-05
4.85927e-05
-1.1174e-06
4.1915e-05
-1.78007e-05
2.75011e-05
-3.10443e-05
2.10348e-05
-3.77026e-05
2.79462e-05
-4.6626e-05
4.17682e-05
-6.69572e-05
5.2135e-05
-9.10124e-05
5.9233e-05
-0.000119512
6.52996e-05
-0.000165859
6.87766e-05
-0.000227277
6.32626e-05
-0.000280562
2.37183e-05
-0.000317961
-3.93838e-05
-0.000310597
-9.26368e-05
-0.000303199
-7.54687e-05
-0.000284485
-5.93847e-05
-0.000257438
-4.13131e-05
-0.000216168
-4.71295e-05
-4.69672e-05
-0.000188522
2.56934e-05
0.000113541
4.17868e-05
0.000127472
4.05814e-05
9.93765e-05
3.28365e-05
7.07976e-05
2.32757e-05
5.81534e-05
1.10928e-05
5.40979e-05
-6.36317e-06
4.4957e-05
-2.58949e-05
4.05666e-05
-3.90734e-05
4.11248e-05
-4.41616e-05
4.68565e-05
-4.9977e-05
5.79504e-05
-6.07137e-05
6.99698e-05
-7.24083e-05
7.69942e-05
-8.49955e-05
8.13638e-05
-0.000102142
8.04087e-05
-0.000127921
4.94979e-05
-0.000168984
1.67883e-06
-0.000220547
-4.10736e-05
-0.00024823
-4.77859e-05
-0.000253588
-5.40265e-05
-0.000216979
-7.79222e-05
-0.000176165
-8.79431e-05
-6.76117e-05
-0.000155521
9.17505e-06
0.000104366
3.03247e-05
0.000106322
3.52277e-05
9.44736e-05
2.83313e-05
7.76941e-05
1.7929e-05
6.85557e-05
7.37762e-06
6.46492e-05
-7.19363e-06
5.95282e-05
-2.38023e-05
5.71753e-05
-3.76017e-05
5.49242e-05
-4.653e-05
5.57848e-05
-5.20164e-05
6.34368e-05
-5.69489e-05
7.49023e-05
-6.10975e-05
8.11428e-05
-6.25579e-05
8.28243e-05
-6.70295e-05
8.48803e-05
-9.38938e-05
7.63623e-05
-0.000147023
5.48076e-05
-0.00021869
3.05934e-05
-0.000273403
6.92723e-06
-0.000295995
-3.14344e-05
-0.000285123
-8.87936e-05
-0.000243044
-0.000130022
-0.000110759
-0.000199897
1.77274e-06
0.000102593
1.64175e-05
9.16775e-05
2.12072e-05
8.9684e-05
1.70805e-05
8.18207e-05
9.43962e-06
7.61966e-05
1.31144e-06
7.27773e-05
-9.54783e-06
7.03875e-05
-2.13026e-05
6.89302e-05
-3.30041e-05
6.66256e-05
-4.33222e-05
6.61028e-05
-5.02921e-05
7.04067e-05
-5.39568e-05
7.8567e-05
-5.72576e-05
8.44436e-05
-6.12996e-05
8.68663e-05
-6.69384e-05
9.0519e-05
-8.27371e-05
9.21608e-05
-0.000114656
8.67269e-05
-0.000159426
7.53627e-05
-0.000208234
5.57354e-05
-0.000252953
1.32847e-05
-0.000279479
-6.22678e-05
-0.000277469
-0.000132031
-0.000134609
-0.000253618
5.45901e-07
0.000102047
7.80307e-06
8.44204e-05
1.03714e-05
8.71156e-05
8.12702e-06
8.40649e-05
3.42374e-06
8.08998e-05
-2.19368e-06
7.83947e-05
-9.32998e-06
7.75238e-05
-1.74257e-05
7.70258e-05
-2.67789e-05
7.59788e-05
-3.63367e-05
7.56605e-05
-4.37612e-05
7.78312e-05
-4.80821e-05
8.28878e-05
-5.20743e-05
8.84358e-05
-5.8385e-05
9.31771e-05
-6.68092e-05
9.89432e-05
-7.94183e-05
0.00010477
-0.000100789
0.000108097
-0.000134308
0.000108883
-0.00018033
0.000101757
-0.000228081
6.10363e-05
-0.000263551
-2.67982e-05
-0.000282257
-0.000113326
-0.000152229
-0.000264637
3.49763e-07
0.000101698
3.45394e-06
8.13162e-05
4.62435e-06
8.59451e-05
3.31916e-06
8.537e-05
5.03866e-07
8.37149e-05
-3.22266e-06
8.21212e-05
-7.82177e-06
8.21228e-05
-1.33477e-05
8.25517e-05
-2.01768e-05
8.28079e-05
-2.77102e-05
8.31938e-05
-3.45698e-05
8.46906e-05
-3.99121e-05
8.82299e-05
-4.50513e-05
9.35749e-05
-5.20073e-05
0.000100133
-6.09873e-05
0.000107923
-7.22463e-05
0.000116029
-8.8089e-05
0.00012394
-0.000112853
0.000133647
-0.000151177
0.00014008
-0.000201168
0.000111028
-0.000250815
2.28488e-05
-0.000284826
-7.93155e-05
-0.000156443
-0.000280611
-3.70355e-08
0.000101735
1.29045e-06
7.99885e-05
1.92515e-06
8.53103e-05
1.11826e-06
8.61768e-05
-6.5179e-07
8.54849e-05
-3.22044e-06
8.46897e-05
-6.27228e-06
8.51746e-05
-9.93172e-06
8.62111e-05
-1.44828e-05
8.73589e-05
-1.98328e-05
8.85438e-05
-2.55268e-05
9.03846e-05
-3.10881e-05
9.37911e-05
-3.67717e-05
9.92585e-05
-4.33784e-05
0.00010674
-5.11999e-05
0.000115744
-6.03702e-05
0.000125199
-7.18059e-05
0.000135375
-8.81649e-05
0.000150006
-0.00011565
0.000167566
-0.000162229
0.000157607
-0.000222818
8.34387e-05
-0.000274152
-2.79816e-05
-0.000115047
-0.000315549
-3.20716e-07
0.000102055
3.01528e-07
7.93661e-05
6.97779e-07
8.49139e-05
1.47295e-07
8.67271e-05
-1.04156e-06
8.66737e-05
-2.83104e-06
8.64791e-05
-4.90076e-06
8.72441e-05
-7.29202e-06
8.86023e-05
-1.0231e-05
9.02978e-05
-1.39018e-05
9.22145e-05
-1.82811e-05
9.47638e-05
-2.31266e-05
9.86366e-05
-2.82447e-05
0.000104377
-3.36612e-05
0.000112156
-3.95283e-05
0.000121611
-4.6145e-05
0.000131816
-5.38379e-05
0.000143068
-6.36458e-05
0.000159814
-8.1962e-05
0.000185882
-0.000124258
0.000199903
-0.000189107
0.000148287
-0.000246526
2.94374e-05
-4.77891e-05
-0.000313784
-3.71173e-07
0.000102426
-5.04312e-08
7.90452e-05
2.17736e-07
8.46456e-05
-1.57671e-07
8.71025e-05
-9.49537e-07
8.74655e-05
-2.16963e-06
8.76992e-05
-3.58479e-06
8.86593e-05
-5.17977e-06
9.01972e-05
-7.10447e-06
9.22225e-05
-9.5793e-06
9.46892e-05
-1.26828e-05
9.78673e-05
-1.62653e-05
0.000102219
-2.0033e-05
0.000108144
-2.37311e-05
0.000115854
-2.73694e-05
0.00012525
-3.13061e-05
0.000135753
-3.5669e-05
0.000147431
-4.0149e-05
0.000164294
-4.81237e-05
0.000193857
-7.47036e-05
0.000226483
-0.000131859
0.000205443
-0.000190637
8.82155e-05
8.60837e-06
-0.000247034
-2.43064e-07
0.000102669
-2.85951e-08
7.88307e-05
1.93348e-07
8.44236e-05
-7.86731e-10
8.72966e-05
-4.67651e-07
8.79323e-05
-1.2377e-06
8.84692e-05
-2.16611e-06
8.95877e-05
-3.21373e-06
9.12448e-05
-4.43993e-06
9.34486e-05
-5.98476e-06
9.6234e-05
-7.89922e-06
9.97819e-05
-1.00585e-05
0.000104378
-1.2197e-05
0.000110283
-1.40266e-05
0.000117684
-1.54421e-05
0.000126665
-1.67202e-05
0.000137031
-1.79695e-05
0.000148681
-1.8094e-05
0.000164419
-1.65637e-05
0.000192327
-2.48014e-05
0.000234721
-6.93582e-05
0.00025
-0.000140532
0.000159389
6.04908e-05
-0.000192414
-2.81881e-08
0.000102697
2.01546e-07
7.86007e-05
4.57767e-07
8.41673e-05
4.63425e-07
8.7291e-05
2.97867e-07
8.80979e-05
-6.81561e-08
8.88351e-05
-5.54195e-07
9.00737e-05
-1.1196e-06
9.18103e-05
-1.74823e-06
9.40772e-05
-2.48793e-06
9.69738e-05
-3.32329e-06
0.000100617
-4.12936e-06
0.000105185
-4.68743e-06
0.000110841
-4.7558e-06
0.000117752
-4.11661e-06
0.000126026
-2.85014e-06
0.000135765
-9.66432e-07
0.000146797
2.98736e-06
0.000160465
1.18131e-05
0.000183501
2.30713e-05
0.000223463
1.12165e-05
0.000261854
-5.56821e-05
0.000226288
0.000127086
-0.000122277
2.22313e-07
0.000102475
5.18737e-07
7.83043e-05
8.82436e-07
8.38035e-05
1.10872e-06
8.70646e-05
1.24133e-06
8.79652e-05
1.26646e-06
8.881e-05
1.22438e-06
9.01156e-05
1.169e-06
9.18656e-05
1.11577e-06
9.41303e-05
1.12545e-06
9.69641e-05
1.26078e-06
0.000100482
1.64878e-06
0.000104797
2.48445e-06
0.000110005
3.98988e-06
0.000116247
6.34163e-06
0.000123674
9.76937e-06
0.000132337
1.43336e-05
0.000142233
2.10078e-05
0.000153791
3.40779e-05
0.000170431
5.80408e-05
0.0001995
8.14526e-05
0.000238443
6.06132e-05
0.000247127
0.000193037
-5.33736e-06
4.78018e-07
0.000101997
8.84282e-07
7.78978e-05
1.39982e-06
8.3288e-05
1.85301e-06
8.66113e-05
2.2726e-06
8.75455e-05
2.65663e-06
8.8426e-05
3.04382e-06
8.97285e-05
3.46941e-06
9.14401e-05
4.00211e-06
9.35977e-05
4.70056e-06
9.62658e-05
5.67282e-06
9.951e-05
7.05041e-06
0.000103419
8.99263e-06
0.000108063
1.17237e-05
0.000113515
1.55262e-05
0.000119872
2.06683e-05
0.000127195
2.74226e-05
0.000135478
3.64788e-05
0.000144734
5.08942e-05
0.000156015
7.7216e-05
0.000173178
0.000115928
0.00019973
0.000142885
0.000220171
0.000205219
0.000130702
7.13691e-07
0.000101283
1.25052e-06
7.73608e-05
1.94598e-06
8.25924e-05
2.62771e-06
8.59296e-05
3.32204e-06
8.68512e-05
4.03988e-06
8.77081e-05
4.81972e-06
8.89488e-05
5.70603e-06
9.05536e-05
6.76415e-06
9.25395e-05
8.08156e-06
9.49484e-05
9.74928e-06
9.78423e-05
1.19185e-05
0.00010125
1.47529e-05
0.000105229
1.84609e-05
0.000109807
2.33053e-05
0.000115028
2.9619e-05
0.000120881
3.77778e-05
0.000127319
4.82988e-05
0.000134213
6.27489e-05
0.000141565
8.56952e-05
0.000150232
0.000122961
0.000162465
0.0001676
0.000175532
0.000171443
0.000201376
9.29473e-07
0.000100354
1.60358e-06
7.66868e-05
2.48051e-06
8.17154e-05
3.3843e-06
8.50256e-05
4.33262e-06
8.59028e-05
5.34886e-06
8.66917e-05
6.47342e-06
8.78242e-05
7.75782e-06
8.92692e-05
9.26685e-06
9.10305e-05
1.10827e-05
9.31325e-05
1.3318e-05
9.5607e-05
1.60975e-05
9.8471e-05
1.95799e-05
0.000101746
2.39636e-05
0.000105423
2.94953e-05
0.000109496
3.64796e-05
0.000113897
4.528e-05
0.000118519
5.63286e-05
0.000123165
7.03552e-05
0.000127539
8.92926e-05
0.000131294
0.000117437
0.00013432
0.000156147
0.000136822
0.000131006
0.000196584
1.127e-06
9.92265e-05
1.92636e-06
7.58874e-05
2.98126e-06
8.06606e-05
4.08868e-06
8.39182e-05
5.2639e-06
8.47276e-05
6.53822e-06
8.54174e-05
7.95405e-06
8.64084e-05
9.56189e-06
8.76614e-05
1.14308e-05
8.91616e-05
1.36429e-05
9.09203e-05
1.62961e-05
9.29541e-05
1.95072e-05
9.52599e-05
2.34237e-05
9.78296e-05
2.82208e-05
0.000100626
3.4112e-05
0.000103605
4.13387e-05
0.00010667
5.01986e-05
0.000109659
6.10192e-05
0.000112344
7.41869e-05
0.000114371
9.02523e-05
0.000115229
0.000110511
0.000114062
0.000136898
0.000110435
0.000101468
0.000166436
1.30355e-06
9.79231e-05
2.21483e-06
7.49763e-05
3.42604e-06
7.94494e-05
4.71557e-06
8.26287e-05
6.08669e-06
8.33564e-05
7.57517e-06
8.3929e-05
9.22579e-06
8.47577e-05
1.1089e-05
8.57983e-05
1.32322e-05
8.70183e-05
1.57289e-05
8.84235e-05
1.86712e-05
9.00121e-05
2.21619e-05
9.17691e-05
2.63284e-05
9.36631e-05
3.1313e-05
9.56421e-05
3.72895e-05
9.76283e-05
4.44455e-05
9.95143e-05
5.29863e-05
0.000101118
6.31257e-05
0.000102205
7.50687e-05
0.000102428
8.89632e-05
0.000101334
0.000104781
9.82445e-05
0.000122861
9.23547e-05
8.23088e-05
0.00014202
1.45815e-06
9.6465e-05
2.46333e-06
7.39713e-05
3.80887e-06
7.81038e-05
5.25039e-06
8.11871e-05
6.78326e-06
8.18235e-05
8.44431e-06
8.2268e-05
1.02769e-05
8.29251e-05
1.23324e-05
8.37427e-05
1.4668e-05
8.46827e-05
1.73545e-05
8.57372e-05
2.04719e-05
8.68949e-05
2.41095e-05
8.81312e-05
2.83723e-05
8.94003e-05
3.33728e-05
9.06417e-05
3.92401e-05
9.17609e-05
4.61083e-05
9.2646e-05
5.41074e-05
9.31191e-05
6.33556e-05
9.29566e-05
7.39314e-05
9.18523e-05
8.58465e-05
8.94192e-05
9.88765e-05
8.52143e-05
0.000112608
7.86231e-05
6.87905e-05
0.000126126
1.58942e-06
9.48756e-05
2.67255e-06
7.28882e-05
4.12456e-06
7.66519e-05
5.68661e-06
7.9625e-05
7.34587e-06
8.01642e-05
9.137e-06
8.04768e-05
1.1102e-05
8.09603e-05
1.32885e-05
8.15562e-05
1.57494e-05
8.22216e-05
1.85458e-05
8.29409e-05
2.17448e-05
8.36958e-05
2.54229e-05
8.4453e-05
2.96608e-05
8.51624e-05
3.45462e-05
8.57564e-05
4.01664e-05
8.61406e-05
4.66135e-05
8.61988e-05
5.39582e-05
8.57744e-05
6.22474e-05
8.46674e-05
7.14754e-05
8.26242e-05
8.15597e-05
7.93348e-05
9.22841e-05
7.44899e-05
0.000103185
6.77219e-05
5.84619e-05
0.000113514
1.69798e-06
9.31779e-05
2.84277e-06
7.17434e-05
4.37409e-06
7.51206e-05
6.02448e-06
7.79746e-05
7.77495e-06
7.84137e-05
9.65475e-06
7.8597e-05
1.1706e-05
7.89091e-05
1.39706e-05
7.92915e-05
1.64957e-05
7.96965e-05
1.93336e-05
8.01032e-05
2.25391e-05
8.04902e-05
2.61724e-05
8.08197e-05
3.0296e-05
8.10388e-05
3.49743e-05
8.10781e-05
4.0264e-05
8.08508e-05
4.62178e-05
8.0245e-05
5.28653e-05
7.9127e-05
6.02075e-05
7.73252e-05
6.81907e-05
7.4641e-05
7.6687e-05
7.08384e-05
8.54809e-05
6.56959e-05
9.42036e-05
5.89991e-05
5.03728e-05
0.000102293
1.78528e-06
9.13926e-05
2.97618e-06
7.05527e-05
4.56154e-06
7.35352e-05
6.26949e-06
7.62668e-05
8.0754e-06
7.66079e-05
1.00076e-05
7.6665e-05
1.21017e-05
7.68149e-05
1.43977e-05
7.69955e-05
1.69341e-05
7.71602e-05
1.97547e-05
7.72826e-05
2.29044e-05
7.73404e-05
2.64313e-05
7.72929e-05
3.03795e-05
7.70906e-05
3.47914e-05
7.66662e-05
3.97016e-05
7.59405e-05
4.51342e-05
7.48124e-05
5.10925e-05
7.31687e-05
5.75466e-05
7.0871e-05
6.44232e-05
6.77643e-05
7.15869e-05
6.36745e-05
7.88367e-05
5.84461e-05
8.58814e-05
5.19544e-05
4.39561e-05
9.22981e-05
1.85462e-06
8.95379e-05
3.07295e-06
6.93343e-05
4.68876e-06
7.19194e-05
6.425e-06
7.45306e-05
8.25637e-06
7.47766e-05
1.02068e-05
7.47149e-05
1.23079e-05
7.47137e-05
1.45942e-05
7.47093e-05
1.70995e-05
7.4655e-05
1.98568e-05
7.45252e-05
2.2904e-05
7.42933e-05
2.62753e-05
7.39216e-05
3.00032e-05
7.33628e-05
3.4113e-05
7.25564e-05
3.86231e-05
7.14304e-05
4.35362e-05
6.98993e-05
4.8838e-05
6.78667e-05
5.44849e-05
6.52239e-05
6.03958e-05
6.18532e-05
6.64427e-05
5.76276e-05
7.24514e-05
5.24374e-05
7.81939e-05
4.62118e-05
3.87966e-05
8.33532e-05
1.91212e-06
8.76258e-05
3.13333e-06
6.8113e-05
4.75916e-06
7.02937e-05
6.49975e-06
7.279e-05
8.33029e-06
7.29461e-05
1.02705e-05
7.27749e-05
1.23478e-05
7.26365e-05
1.45909e-05
7.24663e-05
1.70281e-05
7.22178e-05
1.96864e-05
7.18668e-05
2.25949e-05
7.1385e-05
2.57777e-05
7.07388e-05
2.92568e-05
6.98835e-05
3.30464e-05
6.87666e-05
3.71516e-05
6.73251e-05
4.1563e-05
6.54878e-05
4.6255e-05
6.31746e-05
5.11773e-05
6.03016e-05
5.62501e-05
5.67804e-05
6.13579e-05
5.25199e-05
6.63536e-05
4.74417e-05
7.10604e-05
4.1505e-05
3.46143e-05
7.52426e-05
1.96823e-06
8.56577e-05
3.15862e-06
6.69225e-05
4.77355e-06
6.86789e-05
6.49797e-06
7.10657e-05
8.30798e-06
7.11361e-05
1.02134e-05
7.08695e-05
1.22417e-05
7.06083e-05
1.4416e-05
7.02922e-05
1.67592e-05
6.98746e-05
1.92926e-05
6.93333e-05
2.20372e-05
6.86404e-05
2.50113e-05
6.77647e-05
2.82273e-05
6.66672e-05
3.16919e-05
6.53019e-05
3.54006e-05
6.36163e-05
3.93372e-05
6.15511e-05
4.34695e-05
5.90421e-05
4.77475e-05
5.60235e-05
5.20956e-05
5.24325e-05
5.64119e-05
4.82037e-05
6.05723e-05
4.32813e-05
6.44388e-05
3.76384e-05
3.12179e-05
6.78351e-05
2.03252e-06
8.36251e-05
3.15497e-06
6.58e-05
4.7329e-06
6.71008e-05
6.42494e-06
6.93736e-05
8.197e-06
6.93641e-05
1.00494e-05
6.90171e-05
1.20096e-05
6.86482e-05
1.4096e-05
6.82058e-05
1.63265e-05
6.76441e-05
1.87186e-05
6.69412e-05
2.12875e-05
6.60715e-05
2.40446e-05
6.50074e-05
2.69964e-05
6.37152e-05
3.01426e-05
6.21557e-05
3.34739e-05
6.0285e-05
3.69704e-05
5.80546e-05
4.05985e-05
5.54141e-05
4.43083e-05
5.23137e-05
4.80327e-05
4.8708e-05
5.16837e-05
4.45526e-05
5.5157e-05
3.98079e-05
5.83404e-05
3.44549e-05
2.84588e-05
6.10996e-05
2.10417e-06
8.15208e-05
3.13367e-06
6.47702e-05
4.642e-06
6.55925e-05
6.28568e-06
6.77298e-05
8.00271e-06
6.76472e-05
9.78568e-06
6.72342e-05
1.16618e-05
6.67723e-05
1.36463e-05
6.62214e-05
1.57531e-05
6.55373e-05
1.79964e-05
6.46979e-05
2.03856e-05
6.36823e-05
2.29272e-05
6.24656e-05
2.56233e-05
6.10192e-05
2.84693e-05
5.93097e-05
3.14532e-05
5.73013e-05
3.45526e-05
5.49552e-05
3.77346e-05
5.22321e-05
4.09539e-05
4.90945e-05
4.41519e-05
4.55099e-05
4.7254e-05
4.14504e-05
5.01725e-05
3.68894e-05
5.2815e-05
3.18125e-05
2.61972e-05
5.50767e-05
2.17445e-06
7.93462e-05
3.10121e-06
6.38431e-05
4.50596e-06
6.41878e-05
6.08078e-06
6.61549e-05
7.72347e-06
6.60046e-05
9.42037e-06
6.55375e-05
1.11974e-05
6.49952e-05
1.30676e-05
6.43511e-05
1.50423e-05
6.35627e-05
1.71319e-05
6.26084e-05
1.9342e-05
6.14721e-05
2.16751e-05
6.01325e-05
2.41299e-05
5.85644e-05
2.66988e-05
5.67409e-05
2.93684e-05
5.46317e-05
3.2117e-05
5.22066e-05
3.4914e-05
4.94352e-05
3.7719e-05
4.62895e-05
4.04822e-05
4.27468e-05
4.31424e-05
3.87902e-05
4.56288e-05
3.4403e-05
4.78653e-05
2.95761e-05
2.42933e-05
4.97693e-05
2.23602e-06
7.71099e-05
3.05371e-06
6.30252e-05
4.32312e-06
6.29184e-05
5.8051e-06
6.46728e-05
7.3518e-06
6.44579e-05
8.94296e-06
6.39464e-05
1.06033e-05
6.33347e-05
1.23442e-05
6.26102e-05
1.41757e-05
6.17313e-05
1.61042e-05
6.068e-05
1.81326e-05
5.94436e-05
2.02607e-05
5.80045e-05
2.24839e-05
5.63413e-05
2.47941e-05
5.44307e-05
2.71776e-05
5.22481e-05
2.9614e-05
4.97701e-05
3.20757e-05
4.69734e-05
3.45288e-05
4.38365e-05
3.69318e-05
4.03439e-05
3.92368e-05
3.64853e-05
4.13879e-05
3.22521e-05
4.33249e-05
2.76392e-05
2.2634e-05
4.49844e-05
2.28498e-06
7.48247e-05
2.98454e-06
6.23256e-05
4.08923e-06
6.18136e-05
5.45199e-06
6.331e-05
6.87735e-06
6.30325e-05
8.33906e-06
6.24846e-05
9.86087e-06
6.18128e-05
1.14529e-05
6.10182e-05
1.31239e-05
6.00604e-05
1.48765e-05
5.89274e-05
1.67113e-05
5.76089e-05
1.86264e-05
5.60894e-05
2.06162e-05
5.43515e-05
2.2672e-05
5.23749e-05
2.47803e-05
5.01398e-05
2.69228e-05
4.76277e-05
2.90766e-05
4.48198e-05
3.12124e-05
4.17009e-05
3.32962e-05
3.82601e-05
3.52915e-05
3.44901e-05
3.71557e-05
3.03881e-05
3.88428e-05
2.59523e-05
2.11728e-05
4.03043e-05
2.31503e-06
7.25096e-05
2.89116e-06
6.17495e-05
3.80586e-06
6.08988e-05
5.02009e-06
6.20958e-05
6.29554e-06
6.1757e-05
7.60152e-06
6.11785e-05
8.96017e-06
6.04541e-05
1.03796e-05
5.95989e-05
1.18668e-05
5.85733e-05
1.34218e-05
5.73723e-05
1.50432e-05
5.59874e-05
1.67282e-05
5.44044e-05
1.84703e-05
5.26093e-05
2.02605e-05
5.05846e-05
2.2087e-05
4.83133e-05
2.39336e-05
4.57811e-05
2.57802e-05
4.29733e-05
2.76017e-05
3.98795e-05
2.93713e-05
3.64906e-05
3.10599e-05
3.28018e-05
3.26351e-05
2.88132e-05
3.4063e-05
2.45246e-05
1.99319e-05
3.53041e-05
2.30972e-06
7.01998e-05
2.77029e-06
6.12888e-05
3.48049e-06
6.01886e-05
4.51808e-06
6.10584e-05
5.61581e-06
6.06593e-05
6.74197e-06
6.00523e-05
7.91449e-06
5.92817e-05
9.13959e-06
5.83739e-05
1.04211e-05
5.72916e-05
1.17569e-05
5.60365e-05
1.31445e-05
5.45998e-05
1.458e-05
5.2969e-05
1.6057e-05
5.11322e-05
1.75672e-05
4.90743e-05
1.9099e-05
4.67814e-05
2.06388e-05
4.42414e-05
2.21684e-05
4.14438e-05
2.36667e-05
3.83813e-05
2.51117e-05
3.50459e-05
2.648e-05
3.14338e-05
2.77454e-05
2.7548e-05
2.88838e-05
2.33863e-05
1.89552e-05
2.98605e-05
2.24627e-06
6.79535e-05
2.61252e-06
6.09225e-05
3.11958e-06
5.96817e-05
3.96355e-06
6.02144e-05
4.86344e-06
5.97593e-05
5.79476e-06
5.91211e-05
6.76748e-06
5.83091e-05
7.7842e-06
5.73572e-05
8.84626e-06
5.62296e-05
9.95023e-06
5.49327e-05
1.10932e-05
5.34569e-05
1.22705e-05
5.17917e-05
1.34761e-05
4.99266e-05
1.47018e-05
4.78487e-05
1.59372e-05
4.55461e-05
1.71702e-05
4.30085e-05
1.83849e-05
4.02293e-05
1.95638e-05
3.72026e-05
2.06891e-05
3.39208e-05
2.17401e-05
3.03829e-05
2.26977e-05
2.65905e-05
2.35436e-05
2.25404e-05
1.82525e-05
2.42464e-05
2.11899e-06
6.58344e-05
2.40637e-06
6.06353e-05
2.72624e-06
5.93619e-05
3.37651e-06
5.95641e-05
4.0732e-06
5.90626e-05
4.80857e-06
5.83858e-05
5.57835e-06
5.75394e-05
6.38621e-06
5.65493e-05
7.22931e-06
5.53866e-05
8.10358e-06
5.40586e-05
9.00669e-06
5.2554e-05
9.9335e-06
5.0865e-05
1.08784e-05
4.89817e-05
1.18335e-05
4.68936e-05
1.27903e-05
4.45893e-05
1.37381e-05
4.20609e-05
1.46632e-05
3.93042e-05
1.55513e-05
3.63146e-05
1.63877e-05
3.30846e-05
1.71558e-05
2.9615e-05
1.78418e-05
2.59046e-05