/*--------------------------------*- C++ -*----------------------------------*\
  =========                 |
  \\      /  F ield         | OpenFOAM: The Open Source CFD Toolbox
   \\    /   O peration     | Website:  https://openfoam.org
    \\  /    A nd           | Version:  13
     \\/     M anipulation  |
\*---------------------------------------------------------------------------*/
FoamFile
{
    format      ascii;
    class       volScalarField;
    location    "0.7";
    object      rho;
}
// * * * * * * * * * * * * * * * * * * * * * * * * * * * * * * * * * * * * * //

dimensions      [1 -3 0 0 0 0 0];

internalField   nonuniform List<scalar> 
2268
(
1000
1000
1000
1000
1000
1000
1000
1000
1000
1000
1000
1000
1000
1000
1000
999.999
997.217
960.403
946.974
990.25
998.056
998.059
998.016
1000
1000
1000
1000
1000
1000
1000
1000
1000
1000
1000
1000
1000
1000
1000
999.998
999.85
981.089
946.857
946.571
981.278
978.806
995.656
1000
1000
1000
1000
1000
1000
1000
1000
1000
1000
1000
1000
1000
1000
1000
1000
999.999
999.822
977.784
943.443
943.443
943.443
994.207
1000
1000
1000
1000
1000
1000
1000
1000
1000
1000
1000
1000
1000
1000
1000
1000
1000
1000
999.997
983.338
944.116
969.427
998.205
1000
1000
1000
1000
1000
1000
1000
1000
1000
1000
1000
1000
1000
1000
1000
1000
1000
1000
1000
1000
985.065
1000
999.998
1000
1000
1000
1000
1000
1000
999.997
999.991
999.983
999.996
1000
1000
1000
1000
1000
1000
1000
1000
1000
1000
1000
1000
999.994
1000
1000
1000
1000
1000
999.997
999.529
999.375
999.782
999.973
999.998
1000
1000
1000
1000
1000
1000
1000
1000
1000
1000
1000
999.949
974.286
935.914
903.717
875.016
864.777
873.118
917.098
983.174
999.998
999.998
999.998
999.998
999.997
999.999
1000
1000
1000
1000
1000
1000
1000
1000
999.949
928.766
999.932
999.937
999.949
998.784
865.273
716.406
651.92
716.962
895.198
895.201
895.196
895.151
894.871
894.418
896.078
896.939
896.963
820.429
948.409
999.938
999.951
999.969
999.968
999.969
999.969
704.985
889.756
895.199
895.196
827.415
777.367
808.447
840.052
873.302
900.552
904.059
904.053
999.568
999.938
999.342
999.236
999.969
999.969
955.819
924.559
921.165
803.838
261.851
111.284
96.4276
130.116
185.787
332.175
598.988
903.693
904.073
998.584
976.886
953.345
996.269
999.968
999.969
902.754
921.165
787.117
146.776
2.98587
1.25653
1.18535
1.25544
1.64085
3.6348
46.9837
599.35
904.044
649.384
581.837
869.522
998.861
999.962
999.968
922.224
910.755
544.268
3.00882
1.24923
1.13997
1.14994
1.17097
1.25694
1.65176
3.891
203.125
903.578
507.513
537.086
906.017
998.604
999.937
999.962
979.92
837.154
137.6
1.47203
1.14114
1.12906
1.13901
1.14971
1.17605
1.29093
1.78841
101.93
900.165
509.197
784.882
980.151
993.005
977.028
997.465
997.065
748.658
2.11102
1.17436
1.12543
1.12674
1.1291
1.14311
1.25601
1.77755
2.7785
55.7946
820.313
836.238
977.741
978.001
916.874
781.708
994.39
987.836
613.073
1.35287
1.12574
1.11626
1.12153
1.12675
1.17703
1.67767
2.32747
3.14054
24.5992
366.742
277.974
270.799
270.777
288.242
344.101
459.043
615.708
776.536
902.763
980.496
1000
1000
1000
1000
1000
1000
999.999
1000
1000
1000
1000
1000
999.961
1.60678
16.5607
35.9435
58.45
81.3174
99.2014
123.843
188.552
306.481
464.839
635.441
773.858
857.492
914.279
982.422
997.585
999.944
999.99
999.991
999.948
999.955
999.982
999.951
1.06435
1.00034
1.00009
1.00019
1.00076
1.0625
1.00637
1.02593
1.01032
5.79983
50.9135
120.167
198.085
267.136
354.321
488.976
591.215
616.356
653.814
767.221
881.362
939.567
969.701
1.00533
1.00009
1.00008
1.00017
1.00074
1.00022
1
1
1
1.00001
1.00011
1.00073
1.00403
1.01976
1.09015
1.40048
8.16675
54.9683
127.605
306.186
580.282
710.536
427.6
1.00063
1.0006
1.00008
1.00001
1.00002
1
1
1
1
1
1.00001
1.00028
1.0033
1.01952
1.09624
1.51098
5.61328
126.252
262.254
271.652
131.071
11.273
10.4671
1.00007
1.00019
1.0001
1.00001
1
1
1
1
1.00014
1.00038
1.00026
1.00021
1.00099
1.00667
1.05943
1.378
11.4738
89.6992
111.041
58.6529
42.4933
40.1879
50.683
1.00001
1
1.00005
1.00001
1
1
1
1.00001
1.00035
1.00045
1.00044
1.0001
1.00026
1.00563
1.12661
1.40491
1.26247
1.04028
1.23263
2.31853
106.921
293.664
360.927
1
1
1
1
1
1
1
1.00001
1.00033
1.00045
1.0003
1.00009
1.00013
1.00369
1.02356
1.03964
1.02804
1.01119
1.04038
1.29548
2.3372
27.6657
273.729
1
1
1
1
1
1
1
1
1.00012
1.00022
1.00003
1.00008
1.00051
1.00078
1.00032
1.00049
1.00132
1.00534
1.01989
1.09935
1.52178
3.48994
75.4601
1
1
1
1
1
1
1
1
1
1
1.00001
1.00023
1.00052
1.00034
1.00001
1.00007
1.00037
1.00129
1.0083
1.07092
1.53182
4.34817
134.614
1
1
1
1
1
1
1
1
1
1
1
1.00018
1.00048
1.00013
1
1.00001
1.00009
1.00073
1.00642
1.05175
1.43812
3.99848
119.163
1
1
1
1
1
1
1
1
1
1
1
1.00004
1.00006
1
1
1
1.00005
1.0007
1.00816
1.07473
1.36044
2.32121
3.82341
1
1
1
1
1
1
1
1
1
1
1
1
1
1
1
1
1.00002
1.0004
1.0048
1.0385
1.20524
3.91053
4.3069
1
1
1
1
1
1
1
1
1
1
1
1
1
1
1
1
1.00001
1.00014
1.0015
1.0091
1.07344
3.41381
4.81787
1
1
1
1
1
1
1
1
1
1
1
1
1
1
1
1
1
1.00004
1.00055
1.00672
1.07582
2.75515
4.99659
1
1
1
1
1
1
1
1
1
1
1
1
1
1
1
1
1
1.00002
1.0003
1.0042
1.07327
1.51087
4.33747
1
1
1
1
1
1
1
1
1
1
1
1
1
1
1
1
1
1.00001
1.00007
1.00186
1.01994
1.01141
1.27103
1
1
1
1
1
1
1
1
1
1
1
1
1
1
1
1
1
1
1
1.00007
1.0003
1.00152
1.00524
1
1
1
1
1
1
1
1
1
1
1
1
1
1
1
1
1
1
1
1
1.00003
1.00018
1.00088
1
1
1
1
1
1
1
1
1
1
1
1
1
1
1
1
1
1
1
1
1
1.00002
1.00006
1
1
1
1
1
1
1
1
1
1
1
1
1
1
1
1
1
1
1
1
1
1
1.00001
1
1
1
1
1
1
1
1
1
1
1
1
1
1
1
1
1
1
1
1
1
1
1
1
1
1
1
1
1
1
1
1
1
1
1
1
1
1
1
1
1
1
1
1
1
1
1
1
1
1
1
1
1
1
1
1
1
1
1
1
1
1
1
1
1
1
1
1
1
1
1
1
1
1
1
1
1
1
1
1
1
1
1
1
1
1
1
1
1
1
1
1
1
1
1
1
1
1
1
1
1
1
1
1
1
1
1
1
1
1
1
1
1
1
1
1
1
1
1
1
1
1
1
1
1
1
1
1
1
1
1
1
1
1
1
1
1
1
1
1
1
1
1
1
1
1
1
1
1
1
1
1
1
1
1
1
1
1
1
1
1
1
1
1
1
1
1
1
1
1
1
1
1
1
1
1
1
1
1
1
1
1
1
1
1
1
1
1
1
1
1
1
1
1
1
1
1
1
1
1
1
1
1
1
1
1
1
1
1
1
1
1
1
1
1
1
1
1
1
1
1
1
1
1
1
1
1
1
1
1
1
1
1
1
1
1
1
1
1
1
1
1
1
1
1
1
1
1
1
1
1
1
1
1
1
1
1
1
1
1
1
1
1
1
1
1
1
1
1
1
1
1
1
1
1
1
1
1
1
1
1
1
1
1
1
1
1
1
1
1
1
1
1
1
1
1
1
1
1
1
1
1
1
1
1
1
1
1
1
1
1
1
1
1
1
1
1
1
1
1
1
1
1
1
1
1
1
1
1
1
1
1
1
1
1
1
1
1
1
1
1
1
1
1
1
1
1
1
1
1
1
1
1
1
1
1
1
1
1
1
1
1
1
1
1
1
1
1
1
1
1
1
1
1
1
1
1
1
1
1
1
1
1
1
1
1
1
1
1
1
1
1
1
1
1
1
1
1
1
1
1
1
1
1
1
1
1
1
1
1
1
1
1
1
1
1
1
1
1
1
1
1
1
1
1
1
1
1
1
1
1
1
1
1
1
1
1
1
1
1
1
1
1
1
1
1
1
1
1
1
1
1
1
1
1
1
1
1
1
1
1
1
1
1
1
1
1
1
1
1
1
1
1
1
1
1
1
1
1
1
1
1
1
999.95
999.936
999.917
999.882
999.933
999.908
999.883
999.443
923.43
903.389
888.554
617.248
4.35426
4.28572
5.30484
2.19529
7.04203
10.9166
16.8996
5.53644
195.55
306.471
130.555
11.3804
449.508
448.222
166.575
24.2139
495.745
524.027
169.68
4.01632
520.171
565.96
428.148
31.381
565.851
572.835
582.104
550.368
535.794
582.078
584.791
585.078
13.577
339.566
543.629
586.94
1.01323
1.24648
1.31247
1.03019
1.00507
1.00464
1.00464
1.00476
1.52738
1.00464
1.00461
1.00463
4.08054
2.04483
1.00462
1.00461
3.39955
3.74973
3.67927
1.29283
1.07948
1.46198
2.89803
2.81555
1.00463
1.00368
1.02921
1.29185
1.00025
1.00131
1.00082
1.00122
1.00002
1.00008
1.00005
1.00006
1
1
1
1
1
1
1
1
1
1
1
1
1
1
1
1
1
1
1
1
1
1
1
1
1
1
1
1
1
1
1
1
1
1
1
1
1
1
1
1
1
1
1
1
1
1
1
1
1
1
1
1
1
1
1
1
1
1
1
1
1
1
1
1
1
1
1
1
1
1
1
1
1
1
1
1
1
1
1
1
1
1
1
1
999.806
999.011
889.596
380.864
202.469
713.17
980.322
533.601
1.15033
1.11628
1.11521
1.11633
1.12298
1.25772
3.22589
6.06148
4.17607
12.0052
178.335
952.344
659.38
104.142
12.5106
16.2347
394.281
973.739
613.835
1.12156
1.11521
1.11521
1.11681
1.12476
2.19516
38.2237
142.086
43.5658
12.2936
192.019
158.119
2.03868
2.36409
8.39336
120.413
387.494
832.892
809.849
1.28347
1.11874
1.11521
1.12239
1.33937
66.1631
519.373
742.927
361.259
14.8034
491.705
2.03866
1.95285
1.99732
8.68981
125.359
370.894
622.216
836.156
405.175
1.24917
1.11877
1.25163
23.3139
609.519
819.802
818.66
543.444
19.1164
527.987
2.26266
1.95183
1.95081
4.05754
3.9783
6.48138
216.694
836.156
804.255
169.337
37.2577
2.15758
500.353
819.802
819.802
819.802
411.167
17.6993
525.525
3.35487
1.95081
1.95081
1.95157
1.98182
2.07605
3.82676
307.14
806.415
744.302
194.2
127.315
818.489
819.145
819.802
816.193
224.548
17.7352
583.871
3.61614
1.95761
1.95081
1.95898
1.98822
2.0109
2.17044
126.049
794.051
705.258
166.102
460.481
814.67
818.489
818.844
547.098
217.552
129.677
655.752
3.46945
2.01279
2.20459
1.98812
2.00261
2.03586
2.56316
250.722
714.407
265.79
166.098
455.639
387.498
814.67
803.687
294.678
233.48
459.79
664.36
3.97656
2.37369
15.669
31.2311
21.3992
17.0486
17.25
119.365
264.84
346.153
301.877
146.622
63.7305
545.982
789
523.691
351.327
543.188
670.444
137.149
4.42288
6.68283
46.6374
160.894
225.006
212.27
248.605
330.364
360.797
267.223
1.73523
1.80282
53.1638
575.674
747.473
755.299
724.818
840.751
591.354
519.232
221.138
197.821
383.636
550.629
550.946
549.685
546.771
294.73
22.8613
1.11833
1.07173
1.59822
94.2522
706.999
908.509
919.433
919.199
587.261
602.115
602.115
602.115
599.408
508.308
295.716
121.781
92.6099
31.3681
1.10395
1.02461
1.01601
1.03396
1.32682
31.9904
371.577
829.015
919.481
102.403
476.753
564.533
363.034
47.3643
5.05071
5.09451
6.3549
6.51647
1.68441
1.01712
1.00432
1.00539
1.01457
1.02738
1.14086
1.90154
198.933
918.228
1.00511
1.00674
1.01251
1.0478
4.97254
5.02588
5.61559
5.66794
2.12896
1.01141
1.00297
1.00365
1.00423
1.00507
1.00895
1.02844
1.21616
21.8765
598.524
1.00475
1.00512
1.00466
1.00777
1.43024
1.77362
1.02607
1.02841
1.00966
1.00077
1.00059
1.00354
1.01135
1.01418
1.01202
1.0036
1.03593
7.38199
17.3089
1.00463
1.00454
1.00401
1.00378
1.00401
1.00764
1.00515
1.00161
1.00089
1.0002
1.00012
1.00154
1.02341
1.02384
1.02317
1.00242
1.00188
1.57465
18.5768
1.00475
1.01547
1.00809
1.00336
1.00582
1.00464
1.00221
1.00179
1.00179
1.0009
1.00009
1.00003
1.00002
1.01456
1.01157
1.00248
1.0001
2.33671
88.1847
2.25073
1.17303
1.03871
1.00115
1.00003
1.00001
1.001
1.00452
1.00458
1.00373
1.00017
1.00001
1.00002
1.00002
1.00002
1.001
1.00005
1.14431
88.1847
1.55352
1.36472
1.04698
1.00077
1.00002
1
1
1
1
1
1
1
1.00001
1.00002
1.00002
1.00002
1.00003
1.00005
88.0642
1.0063
1.00139
1.00214
1.00228
1.00029
1
1
1
1
1.00001
1.00001
1.00012
1.00008
1.00003
1.00002
1.00002
1.00004
1.00009
87.6435
1.00052
1.00096
1.00024
1
1
1
1
1
1
1
1.00017
1.00099
1.00072
1.00008
1.00005
1.00009
1.00009
1.00044
86.6415
1.00004
1.00007
1.00004
1.00001
1
1
1
1
1
1
1.00068
1.00107
1.00099
1.0003
1.00039
1.00096
1.00044
1.00305
60.0603
1
1
1
1
1
1
1
1
1
1
1.00065
1.00109
1.00133
1.00179
1.00201
1.00183
1.00188
1.1999
2.43205
1
1
1
1
1
1
1
1
1
1
1.00013
1.00063
1.00093
1.00201
1.00201
1.00036
1.35065
2.00221
1.71429
1
1
1
1
1
1
1
1
1
1
1
1.00012
1.00058
1.00199
1.00158
1.00035
2.16268
2.43902
2.14827
1
1
1
1
1
1
1
1.00001
1.00001
1
1
1.00032
1.00091
1.00053
1.00035
1.00035
2.14938
1.43687
10.9213
1
1
1
1
1
1
1
1.00001
1.00001
1
1
1.00042
1.00093
1.00076
1.00034
1.00035
2.08951
1.00442
65.8654
1
1
1
1
1
1
1
1
1.00001
1
1
1.0002
1.00094
1.00094
1.00034
1.00034
1.23656
1.00153
71.0989
1
1
1
1
1
1
1
1
1.00013
1.00014
1.00001
1.00007
1.0009
1.00051
1.00033
1.04902
1.00153
1.00124
71.2746
1
1
1
1
1
1
1
1.00031
1.00123
1.00042
1.00001
1.00003
1.00023
1.00028
1.00033
1.18517
1.01967
1.0009
71.5353
1
1
1
1
1
1
1
1.00117
1.00128
1.00042
1.00002
1.00003
1.00008
1.00228
1.00033
1.14145
1.01796
1.00049
74.1514
1
1
1
1
1
1
1
1.00125
1.00128
1.00032
1.00003
1.00003
1.00226
1.00901
1.00146
1.00021
1.00017
1.00021
74.2621
1
1
1
1
1
1
1
1.00046
1.00128
1.00036
1.00217
1.00188
1.0156
1.02867
1.0195
1.00024
1.00017
1.00017
74.2921
1
1
1
1
1
1
1
1
1.00069
1.00017
1.01094
1.02849
1.03956
1.03956
1.02176
1.00008
1.00012
1.04066
74.2955
1
1
1
1
1
1
1
1
1
1
1.00981
1.03182
1.03184
1.01451
1
1
1.00078
1.01665
74.2955
1
1
1
1
1
1
1
1
1
1
1
1.0005
1
1
1
1
1.00584
1.25603
74.2202
1
1
1
1
1
1
1
1
1
1
1
1
1
1
1
1
1.00413
2.67544
72.5378
1
1
1
1
1
1
1
1
1
1
1
1
1
1
1
1
1.00001
3.58379
13.3853
1
1
1
1
1
1
1
1
1
1
1
1
1
1
1
1
1
1.74479
1
1
1
1
1
1
1
1
1
1
1
1
1
1
1
1
1
1
1
1
1
1
1
1
1
1
1
1
1
1
1
1
1
1
1
1
1
1
1
1
1
1
1
1
1
1
1
1
1
1
1
1
1
1
1
1
1
1
)
;

boundaryField
{
    leftWall
    {
        type            calculated;
        value           nonuniform List<scalar> 
50
(
1000
1000
1000
1000
1000
1000
1000
974.286
277.974
1.60678
1.06435
1.00533
1.00063
1.00007
1.00001
1
1
1
1
1
1
1
1
1
1
1
1
1
1
1
1
1
1
1
1
1
1
1
1
1
1
1
1
1
1
1
1
1
1
1
)
;
    }
    rightWall
    {
        type            calculated;
        value           nonuniform List<scalar> 
50
(
820.429
904.053
904.073
904.044
903.578
900.165
820.313
366.742
178.335
192.019
491.705
527.987
525.525
583.871
655.752
664.36
670.444
840.751
919.199
919.481
918.228
598.524
17.3089
18.5768
88.1847
88.1847
88.0642
87.6435
86.6415
60.0603
2.43205
1.71429
2.14827
10.9213
65.8654
71.0989
71.2746
71.5353
74.1514
74.2621
74.2921
74.2955
74.2955
74.2202
72.5378
13.3853
1
1
1
1
)
;
    }
    lowerWall
    {
        type            calculated;
        value           nonuniform List<scalar> 
62
(
1000
1000
1000
1000
1000
1000
1000
1000
1000
1000
1000
1000
1000
1000
1000
999.999
997.217
960.403
946.974
990.25
998.056
998.059
998.016
998.016
995.656
994.207
998.205
999.998
999.994
999.949
999.949
999.95
999.936
999.917
999.882
928.766
948.409
999.568
998.584
649.384
507.513
509.197
836.238
928.766
999.932
999.937
999.949
998.784
865.273
716.406
651.92
716.962
895.198
895.201
895.196
895.151
894.871
894.418
896.078
896.939
896.963
820.429
)
;
    }
    atmosphere
    {
        type            calculated;
        value           uniform 1;
    }
    defaultFaces
    {
        type            empty;
    }
}


// ************************************************************************* //
