/*--------------------------------*- C++ -*----------------------------------*\
  =========                 |
  \\      /  F ield         | OpenFOAM: The Open Source CFD Toolbox
   \\    /   O peration     | Website:  https://openfoam.org
    \\  /    A nd           | Version:  13
     \\/     M anipulation  |
\*---------------------------------------------------------------------------*/
FoamFile
{
    format      ascii;
    class       volVectorField;
    location    "0.7";
    object      U;
}
// * * * * * * * * * * * * * * * * * * * * * * * * * * * * * * * * * * * * * //

dimensions      [0 1 -1 0 0 0 0];

internalField   nonuniform List<vector> 
2268
(
(-0.0203053 0.00923005 0)
(-0.065206 0.0108129 0)
(-0.101976 0.00723134 0)
(-0.123232 0.00453209 0)
(-0.138565 0.00192729 0)
(-0.137817 -0.00214051 0)
(-0.117412 -0.00639172 0)
(-0.0833327 -0.00796937 0)
(-0.0504882 -0.00616717 0)
(-0.0299168 -0.00301605 0)
(-0.0225439 0.000410103 0)
(-0.0277503 0.00318528 0)
(-0.0411206 0.00505827 0)
(-0.0596025 0.00659841 0)
(-0.0825762 0.00853824 0)
(-0.112947 0.00910081 0)
(-0.146169 0.00336869 0)
(-0.162428 -0.000361948 0)
(-0.189233 0.0122079 0)
(-0.274493 0.0217176 0)
(-0.320056 0.00365192 0)
(-0.230118 -0.0347635 0)
(-0.0812717 -0.0484695 0)
(-0.0329854 0.0313959 0)
(-0.0766556 0.0288444 0)
(-0.103168 0.0181518 0)
(-0.122339 0.0127665 0)
(-0.139707 0.00657471 0)
(-0.142703 -0.00563897 0)
(-0.123856 -0.0198133 0)
(-0.0881236 -0.0255439 0)
(-0.0522964 -0.0199601 0)
(-0.0294909 -0.0100459 0)
(-0.0215336 -0.00128746 0)
(-0.0210625 0.00523522 0)
(-0.0257987 0.00958919 0)
(-0.0341643 0.0130562 0)
(-0.045788 0.0173958 0)
(-0.0641488 0.0228549 0)
(-0.0973619 0.0241716 0)
(-0.143363 0.0235762 0)
(-0.208006 0.0344674 0)
(-0.270804 0.0341628 0)
(-0.24878 -0.0114791 0)
(-0.163446 -0.0888756 0)
(-0.0521793 -0.121272 0)
(-0.0302516 0.0543666 0)
(-0.0598334 0.0443662 0)
(-0.085022 0.028229 0)
(-0.110062 0.0229231 0)
(-0.135059 0.0139029 0)
(-0.141636 -0.00801791 0)
(-0.124482 -0.0341589 0)
(-0.0925695 -0.0447499 0)
(-0.0588697 -0.0349949 0)
(-0.0355978 -0.0174744 0)
(-0.0271147 -0.00331498 0)
(-0.028403 0.00593053 0)
(-0.0334249 0.0115185 0)
(-0.0383211 0.0154324 0)
(-0.0407358 0.0203557 0)
(-0.0398343 0.0284425 0)
(-0.0424089 0.0380298 0)
(-0.0585773 0.0471426 0)
(-0.0918878 0.0546674 0)
(-0.12686 0.0376729 0)
(-0.112714 -0.0319142 0)
(-0.068084 -0.116005 0)
(-0.00879711 -0.158646 0)
(-0.0212457 0.0715969 0)
(-0.0358717 0.0573625 0)
(-0.0591515 0.0389191 0)
(-0.0835261 0.0344909 0)
(-0.105294 0.022114 0)
(-0.105779 -0.0096508 0)
(-0.0905291 -0.0459862 0)
(-0.0741467 -0.0596066 0)
(-0.0576478 -0.0472099 0)
(-0.0430243 -0.0241659 0)
(-0.0363497 -0.00460095 0)
(-0.0381156 0.00771184 0)
(-0.0440345 0.0141754 0)
(-0.0493989 0.0171471 0)
(-0.0508422 0.0198551 0)
(-0.0457522 0.0257678 0)
(-0.0337451 0.0357885 0)
(-0.0153799 0.0495944 0)
(-0.000872272 0.0602723 0)
(0.0163961 0.0438272 0)
(0.0318572 -0.0266568 0)
(0.0249594 -0.113901 0)
(0.0298511 -0.155432 0)
(-0.00895123 0.0816197 0)
(-0.00462993 0.0649764 0)
(-0.0178634 0.0494716 0)
(-0.0313607 0.0442242 0)
(-0.0370704 0.0266845 0)
(-0.0232256 -0.0122733 0)
(-0.0132622 -0.0492113 0)
(-0.0229103 -0.0611226 0)
(-0.0381115 -0.0486221 0)
(-0.0457328 -0.0256763 0)
(-0.0474383 -0.00503372 0)
(-0.0501247 0.00959223 0)
(-0.055304 0.0169712 0)
(-0.0595781 0.0189244 0)
(-0.0594531 0.0190051 0)
(-0.0537655 0.021426 0)
(-0.0419667 0.0265166 0)
(-0.0166778 0.0355499 0)
(0.0203902 0.0428825 0)
(0.0674537 0.0279152 0)
(0.0960038 -0.0279938 0)
(0.0695664 -0.103638 0)
(0.0538132 -0.1325 0)
(0.00524034 0.0775383 0)
(0.0316481 0.0614696 0)
(0.0399231 0.0469657 0)
(0.0445259 0.0397539 0)
(0.063379 0.0178736 0)
(0.089731 -0.0167119 0)
(0.0850634 -0.0428295 0)
(0.0440437 -0.0479993 0)
(-0.00501539 -0.0358889 0)
(-0.0401434 -0.0180051 0)
(-0.0568616 -0.00155978 0)
(-0.0631827 0.0116266 0)
(-0.0678724 0.0182951 0)
(-0.070289 0.0186246 0)
(-0.0670995 0.0164815 0)
(-0.0586883 0.0169004 0)
(-0.0470194 0.0184749 0)
(-0.027514 0.0207645 0)
(0.00436608 0.0183869 0)
(0.0476393 0.00233125 0)
(0.086891 -0.0333054 0)
(0.0626774 -0.0916926 0)
(0.0626004 -0.11063 0)
(0.015824 0.0671923 0)
(0.0604041 0.0606614 0)
(0.103706 0.0498668 0)
(0.146227 0.0385189 0)
(0.187969 0.0144697 0)
(0.201489 -0.0117897 0)
(0.162119 -0.0249641 0)
(0.0889452 -0.0234323 0)
(0.0199733 -0.0126405 0)
(-0.0305624 -0.00308503 0)
(-0.061221 0.00545298 0)
(-0.0750523 0.01563 0)
(-0.0813677 0.0214362 0)
(-0.0820817 0.0200012 0)
(-0.075056 0.0143023 0)
(-0.0626603 0.0119412 0)
(-0.0489298 0.0110424 0)
(-0.031793 0.00959686 0)
(-0.00805271 0.00201623 0)
(0.0173693 -0.0162232 0)
(0.0521004 -0.0412964 0)
(0.0380768 -0.0865085 0)
(0.0590323 -0.0870043 0)
(0.025316 0.0308674 0)
(0.119518 0.0118645 0)
(0.193222 -0.0026311 0)
(0.238708 -0.00803808 0)
(0.252327 -0.0100731 0)
(0.221931 -0.00426375 0)
(0.149578 0.00845853 0)
(0.0697677 0.0169114 0)
(0.0115047 0.0226284 0)
(-0.0286314 0.0228372 0)
(-0.0572288 0.0199666 0)
(-0.0769134 0.0207879 0)
(-0.0899191 0.0196722 0)
(-0.0935604 0.0136364 0)
(-0.0850125 0.00564405 0)
(-0.0688969 0.00423844 0)
(-0.0524884 0.00503071 0)
(-0.0347325 0.00295345 0)
(-0.0133461 -0.0054657 0)
(0.0052306 -0.0247818 0)
(0.0244914 -0.0450569 0)
(0.021133 -0.0839516 0)
(0.0455579 -0.0551645 0)
(-0.230151 0.068583 0)
(-0.506665 0.0527012 0)
(-0.569738 -0.0185976 0)
(-0.415204 -0.0488578 0)
(-0.268335 -0.0388055 0)
(-0.173299 -0.0364622 0)
(0.0346435 -0.0938658 0)
(0.331623 -0.0481676 0)
(0.268127 0.0264132 0)
(-0.453409 0.18496 0)
(-1.11793 0.172886 0)
(-1.44522 0.0785216 0)
(-1.49121 0.0126713 0)
(-1.41234 -0.0110604 0)
(-1.29135 -0.0180668 0)
(-1.07964 -0.040005 0)
(-0.75262 -0.0938435 0)
(-0.319099 -0.141747 0)
(0.296518 0.010101 0)
(-0.372293 0.214018 0)
(-0.49128 0.129501 0)
(-0.375074 -0.0410183 0)
(-0.260127 -0.0976881 0)
(-0.111925 -0.0872442 0)
(-0.0356888 -0.0847711 0)
(0.1589 -0.193532 0)
(0.265252 -0.0336648 0)
(-0.347755 0.327998 0)
(-1.31239 0.422352 0)
(-1.76303 0.233097 0)
(-1.79345 0.04278 0)
(-1.73465 -0.0439564 0)
(-1.66739 -0.0830637 0)
(-1.53533 -0.108301 0)
(-1.33569 -0.157719 0)
(-1.01301 -0.259709 0)
(-0.553431 -0.317354 0)
(-0.00345555 -0.0183903 0)
(-0.352154 0.340449 0)
(-0.262319 0.142314 0)
(-0.17828 -0.113558 0)
(-0.0589932 -0.166001 0)
(0.0636986 -0.132903 0)
(0.0690965 -0.116629 0)
(0.120484 -0.199226 0)
(-0.246388 0.255569 0)
(-1.07937 0.637852 0)
(-1.8258 0.598869 0)
(-2.08058 0.303376 0)
(-2.24423 0.0619639 0)
(-2.27991 -0.0697786 0)
(-2.14584 -0.147891 0)
(-1.95401 -0.220759 0)
(-1.68223 -0.333889 0)
(-1.2614 -0.507597 0)
(-0.719835 -0.572784 0)
(-0.205031 -0.18968 0)
(-0.274105 0.43394 0)
(0.0148097 0.11391 0)
(0.047613 -0.135424 0)
(0.146865 -0.21294 0)
(0.22109 -0.149203 0)
(0.138922 -0.0850391 0)
(-0.00148662 -0.0810708 0)
(-0.605577 0.514969 0)
(-1.45867 0.926827 0)
(-1.97266 0.807897 0)
(-2.06273 0.475416 0)
(-2.37305 0.172896 0)
(-2.53863 -0.0428036 0)
(-2.34199 -0.207105 0)
(-2.14591 -0.299787 0)
(-1.9294 -0.450132 0)
(-1.47671 -0.714818 0)
(-0.765505 -0.889847 0)
(-0.234694 -0.413714 0)
(-0.156633 0.471755 0)
(0.190598 0.0540211 0)
(0.269642 -0.178135 0)
(0.341108 -0.24247 0)
(0.366988 -0.139028 0)
(0.184029 0.0063964 0)
(-0.112548 0.119177 0)
(-0.85222 0.816625 0)
(-1.61361 1.20118 0)
(-1.88688 0.947727 0)
(-1.96734 0.691618 0)
(-2.34953 0.318728 0)
(-2.22537 -0.106703 0)
(-1.98435 -0.280518 0)
(-1.70791 -0.345908 0)
(-1.60245 -0.440591 0)
(-1.42798 -0.80421 0)
(-0.702146 -1.20772 0)
(-0.16477 -0.64054 0)
(0.0321899 0.403662 0)
(0.338567 0.0270124 0)
(0.450451 -0.214022 0)
(0.509277 -0.255767 0)
(0.504749 -0.0933293 0)
(0.236808 0.142271 0)
(-0.132547 0.343955 0)
(-0.932026 1.09268 0)
(-1.54441 1.40522 0)
(-1.64461 1.06328 0)
(-1.80659 0.828542 0)
(-2.02894 0.280879 0)
(-1.69242 -0.210797 0)
(-1.33516 -0.442953 0)
(-0.855713 -0.532449 0)
(-0.476282 -0.478402 0)
(-0.711324 -0.788921 0)
(-0.583451 -1.44539 0)
(-0.0677196 -0.853246 0)
(0.186205 0.256242 0)
(0.42603 -0.0367015 0)
(0.572433 -0.259955 0)
(0.647609 -0.287883 0)
(0.624138 -0.016386 0)
(0.301368 0.319353 0)
(-0.0745159 0.552883 0)
(-0.856837 1.31156 0)
(-1.21117 1.52884 0)
(-1.15799 1.19985 0)
(-1.57732 0.84543 0)
(-1.60754 0.158529 0)
(-1.20759 -0.376235 0)
(-0.817033 -0.663519 0)
(-0.272217 -0.795992 0)
(0.265733 -0.619582 0)
(0.47472 -0.348392 0)
(-0.431922 -1.47291 0)
(0.00986665 -1.03793 0)
(0.149635 0.0707628 0)
(0.474263 -0.129115 0)
(0.64158 -0.329581 0)
(0.694707 -0.345182 0)
(0.664518 -0.031009 0)
(0.361105 0.420303 0)
(0.0205092 0.73997 0)
(-0.705814 1.46344 0)
(-0.648169 1.67588 0)
(-0.710797 1.35005 0)
(-1.30104 0.858173 0)
(-1.18136 0.0584942 0)
(-0.744311 -0.557247 0)
(-0.371113 -0.854766 0)
(0.170847 -1.03172 0)
(0.351189 -1.01199 0)
(1.37793 -0.345919 0)
(-0.210953 -1.13032 0)
(0.0535174 -1.15305 0)
(0.0312259 -0.0258367 0)
(0.0197325 -0.0397837 0)
(-0.0128697 -0.00603372 0)
(-0.0502213 0.0257385 0)
(-0.0584982 0.0437563 0)
(-0.0590846 0.0543433 0)
(-0.0659587 0.0482018 0)
(-0.0696846 0.0364014 0)
(-0.0697341 0.0308513 0)
(-0.0675357 0.0273978 0)
(-0.0669158 0.0282835 0)
(-0.073768 0.0376564 0)
(-0.0868993 0.0389329 0)
(-0.0935682 0.0247134 0)
(-0.0808925 6.12801e-06 0)
(-0.0629348 -0.00859489 0)
(-0.0504703 -0.0127043 0)
(-0.0380254 -0.016955 0)
(-0.0214166 -0.0249817 0)
(-0.00293228 -0.0403076 0)
(0.0117352 -0.0575269 0)
(0.0232379 -0.0943283 0)
(0.0399778 -0.0833073 0)
(-0.674115 0.0988197 0)
(-0.650618 0.087007 0)
(-0.566389 0.0551102 0)
(-0.470102 0.0107952 0)
(-0.415124 -0.0144857 0)
(-0.404731 -0.00437561 0)
(-0.405052 0.0180328 0)
(-0.379809 0.0261505 0)
(-0.334095 0.0241961 0)
(-0.271533 0.0219993 0)
(-0.197615 0.0256326 0)
(-0.138032 0.0328821 0)
(-0.106754 0.0318787 0)
(-0.0754434 0.00756272 0)
(-0.0418455 -0.0219014 0)
(-0.0298244 -0.0207016 0)
(-0.0278285 -0.0140564 0)
(-0.0206761 -0.0209915 0)
(0.00304968 -0.0348924 0)
(0.0130078 -0.0471653 0)
(0.0175745 -0.0703656 0)
(0.0219453 -0.104519 0)
(0.0442415 -0.125149 0)
(-0.435004 0.764772 0)
(-0.382934 0.105919 0)
(-0.696035 -0.160487 0)
(-0.952647 -0.0719598 0)
(-1.1445 -0.00150773 0)
(-1.2591 0.0335871 0)
(-1.28374 0.0322898 0)
(-1.28103 -0.0249853 0)
(-1.22306 -0.114283 0)
(-0.972729 -0.138648 0)
(-0.700575 -0.104791 0)
(-0.489056 -0.0468909 0)
(-0.395013 -0.0318108 0)
(-0.363934 -0.0381844 0)
(-0.320731 -0.037207 0)
(-0.23259 -0.0223076 0)
(-0.159219 -0.01614 0)
(-0.1194 -0.027861 0)
(-0.0847138 -0.037589 0)
(-0.04428 -0.0335625 0)
(-0.037089 -0.0465591 0)
(-0.0418923 -0.0963468 0)
(-0.0328228 -0.139779 0)
(-0.157534 1.114 0)
(-0.177619 0.469762 0)
(-0.459597 0.334025 0)
(-0.676607 0.279476 0)
(-0.784298 0.198576 0)
(-0.840508 0.124655 0)
(-0.844733 0.0408615 0)
(-0.893798 -0.0668784 0)
(-1.04206 -0.193 0)
(-1.24758 -0.323776 0)
(-1.47635 -0.385512 0)
(-1.67613 -0.1928 0)
(-1.80942 -0.0553281 0)
(-1.89432 -0.077781 0)
(-1.90639 -0.192533 0)
(-1.77116 -0.236882 0)
(-1.4486 -0.19051 0)
(-1.19972 -0.199479 0)
(-1.04041 -0.198731 0)
(-0.790963 -0.150828 0)
(-0.633248 -0.134102 0)
(-0.575101 -0.146265 0)
(-0.623442 -0.10006 0)
(0.0835532 1.10395 0)
(0.059204 0.733037 0)
(-0.136741 0.438313 0)
(-0.210081 0.324292 0)
(-0.220221 0.250055 0)
(-0.253869 0.166601 0)
(-0.217516 0.0791316 0)
(-0.1974 0.0938217 0)
(-0.260725 0.191211 0)
(-0.445486 0.215279 0)
(-0.716146 0.140624 0)
(-0.934459 0.13683 0)
(-1.09332 0.117322 0)
(-1.2326 0.00149323 0)
(-1.40479 -0.157297 0)
(-1.55925 -0.308209 0)
(-1.62925 -0.442786 0)
(-1.55599 -0.42113 0)
(-1.44617 -0.327711 0)
(-1.347 -0.221935 0)
(-1.37367 -0.129679 0)
(-1.59826 -0.011988 0)
(-1.70878 -0.0494327 0)
(0.153669 0.849383 0)
(0.212344 0.803903 0)
(0.125916 0.517819 0)
(0.0903027 0.32366 0)
(0.0826161 0.244406 0)
(0.0266829 0.190827 0)
(-0.0355005 0.0730969 0)
(-0.144222 0.0175972 0)
(-0.19452 0.0763455 0)
(-0.209974 0.181045 0)
(-0.293794 0.234545 0)
(-0.42117 0.265072 0)
(-0.555333 0.308525 0)
(-0.718151 0.297619 0)
(-1.02806 0.19158 0)
(-1.47147 -0.0526983 0)
(-1.66035 -0.359561 0)
(-1.6309 -0.391341 0)
(-1.64916 -0.318226 0)
(-1.61995 -0.1904 0)
(-1.4648 -0.1126 0)
(-1.24178 -0.173223 0)
(-1.01472 -0.229935 0)
(0.0674698 0.644113 0)
(0.209147 0.738175 0)
(0.225305 0.547531 0)
(0.205864 0.367489 0)
(0.150924 0.286652 0)
(0.0958979 0.25506 0)
(0.026672 0.195124 0)
(-0.091911 0.179789 0)
(-0.188019 0.196901 0)
(-0.228757 0.23972 0)
(-0.244564 0.299375 0)
(-0.290199 0.352449 0)
(-0.355102 0.38797 0)
(-0.405622 0.422174 0)
(-0.483031 0.429253 0)
(-0.656596 0.26429 0)
(-0.748455 -0.10359 0)
(-1.03629 -0.512188 0)
(-1.36275 -0.427264 0)
(-1.38345 -0.343085 0)
(-1.19817 -0.217793 0)
(-1.0385 -0.201144 0)
(-0.859018 -0.20129 0)
(-0.0165818 0.574691 0)
(0.124065 0.622452 0)
(0.18978 0.522135 0)
(0.185996 0.403134 0)
(0.117997 0.342728 0)
(0.0715123 0.320745 0)
(0.0102882 0.286318 0)
(-0.0832158 0.272368 0)
(-0.16989 0.263013 0)
(-0.233484 0.276373 0)
(-0.266633 0.32877 0)
(-0.290303 0.39747 0)
(-0.316406 0.43024 0)
(-0.333724 0.443902 0)
(-0.337759 0.455884 0)
(-0.401634 0.354767 0)
(-0.598429 0.147716 0)
(-0.984317 -0.0184111 0)
(-1.37428 -0.164442 0)
(-1.58153 -0.363155 0)
(-1.60574 -0.642982 0)
(-1.42466 -0.702719 0)
(-1.16487 -0.470707 0)
(-0.030754 0.557851 0)
(0.0545192 0.522029 0)
(0.113872 0.49092 0)
(0.11485 0.428895 0)
(0.0662187 0.390885 0)
(0.0329876 0.371649 0)
(-0.0176888 0.352519 0)
(-0.0815908 0.340461 0)
(-0.146041 0.325004 0)
(-0.207911 0.324713 0)
(-0.256591 0.358393 0)
(-0.282479 0.415142 0)
(-0.295935 0.450242 0)
(-0.317039 0.458967 0)
(-0.341842 0.471601 0)
(-0.382976 0.456488 0)
(-0.502155 0.393391 0)
(-0.722851 0.309421 0)
(-0.987204 0.204999 0)
(-1.25314 0.00338144 0)
(-1.46593 -0.369775 0)
(-1.5449 -0.740805 0)
(-1.42919 -0.691501 0)
(-0.0154069 0.551464 0)
(0.0233091 0.46708 0)
(0.0559953 0.473629 0)
(0.0564381 0.447827 0)
(0.0293048 0.425552 0)
(0.00705245 0.408867 0)
(-0.0292685 0.400902 0)
(-0.0698274 0.395867 0)
(-0.116726 0.387071 0)
(-0.16955 0.38405 0)
(-0.219268 0.399422 0)
(-0.250249 0.433463 0)
(-0.266105 0.464964 0)
(-0.291925 0.484278 0)
(-0.334622 0.508661 0)
(-0.386344 0.532375 0)
(-0.469092 0.533632 0)
(-0.608811 0.504791 0)
(-0.820846 0.426541 0)
(-1.10385 0.193022 0)
(-1.36927 -0.243085 0)
(-1.52269 -0.665766 0)
(-1.45609 -0.807625 0)
(-0.00564089 0.548915 0)
(0.0102422 0.443605 0)
(0.0247778 0.465832 0)
(0.0251624 0.458069 0)
(0.0101376 0.445793 0)
(-0.00502508 0.434344 0)
(-0.028917 0.432843 0)
(-0.0546949 0.433508 0)
(-0.0878344 0.432013 0)
(-0.127637 0.431594 0)
(-0.168825 0.439391 0)
(-0.201998 0.460256 0)
(-0.226409 0.489154 0)
(-0.256603 0.520654 0)
(-0.301287 0.557632 0)
(-0.354768 0.596385 0)
(-0.42278 0.630126 0)
(-0.520461 0.661008 0)
(-0.676083 0.654261 0)
(-0.934473 0.442163 0)
(-1.25119 -0.065426 0)
(-1.49577 -0.564583 0)
(-1.53381 -0.828792 0)
(-0.00396197 0.548311 0)
(0.00353273 0.433943 0)
(0.00986478 0.461602 0)
(0.0107508 0.46297 0)
(0.00146443 0.457034 0)
(-0.0091051 0.450869 0)
(-0.0250077 0.452599 0)
(-0.0419934 0.456928 0)
(-0.0639376 0.461039 0)
(-0.0908235 0.46516 0)
(-0.1213 0.473342 0)
(-0.152114 0.490885 0)
(-0.181154 0.51978 0)
(-0.212888 0.558776 0)
(-0.252174 0.605042 0)
(-0.297284 0.652717 0)
(-0.35058 0.703231 0)
(-0.417181 0.773679 0)
(-0.516006 0.842298 0)
(-0.72227 0.733711 0)
(-1.0372 0.305682 0)
(-1.3407 -0.279398 0)
(-1.64879 -0.807778 0)
(-0.00421399 0.549464 0)
(0.000314114 0.42936 0)
(0.00310643 0.458824 0)
(0.00410596 0.466358 0)
(-0.00212631 0.464577 0)
(-0.00954195 0.462166 0)
(-0.0204482 0.465655 0)
(-0.0318925 0.472325 0)
(-0.0458985 0.480346 0)
(-0.0633812 0.488953 0)
(-0.0850931 0.5007 0)
(-0.11035 0.519933 0)
(-0.137134 0.550038 0)
(-0.165064 0.591755 0)
(-0.195288 0.642325 0)
(-0.228196 0.695871 0)
(-0.265968 0.754712 0)
(-0.308995 0.842961 0)
(-0.364594 0.967363 0)
(-0.506211 0.979908 0)
(-0.829057 0.613175 0)
(-1.21366 -0.0248115 0)
(-1.45389 -0.474825 0)
(-0.00371468 0.551605 0)
(-0.000681352 0.427009 0)
(0.000645877 0.457115 0)
(0.00146584 0.468989 0)
(-0.0026722 0.469986 0)
(-0.00775783 0.470213 0)
(-0.015201 0.474898 0)
(-0.0230376 0.482851 0)
(-0.0321347 0.493165 0)
(-0.043567 0.505288 0)
(-0.0584951 0.520956 0)
(-0.0767845 0.543259 0)
(-0.0968395 0.57481 0)
(-0.116959 0.61678 0)
(-0.136391 0.667992 0)
(-0.15601 0.724269 0)
(-0.178153 0.786642 0)
(-0.200973 0.879235 0)
(-0.219922 1.03582 0)
(-0.279326 1.16926 0)
(-0.51814 0.96083 0)
(-0.912273 0.328397 0)
(-1.16241 -0.0652576 0)
(-0.00246524 0.553443 0)
(-0.000375881 0.425752 0)
(0.00052175 0.455948 0)
(0.00135119 0.470588 0)
(-0.000982775 0.473406 0)
(-0.0041127 0.475595 0)
(-0.00887903 0.481228 0)
(-0.0140926 0.489904 0)
(-0.0199592 0.501464 0)
(-0.0271189 0.51591 0)
(-0.0363637 0.534404 0)
(-0.0475137 0.55888 0)
(-0.0593388 0.591037 0)
(-0.0701679 0.631962 0)
(-0.0786572 0.681785 0)
(-0.0851569 0.738455 0)
(-0.0917339 0.801593 0)
(-0.0964901 0.890279 0)
(-0.0875836 1.05079 0)
(-0.0719992 1.26814 0)
(-0.17919 1.25312 0)
(-0.606846 0.611826 0)
(-0.915797 0.166409 0)
(-0.00104716 0.554256 0)
(0.000675411 0.424673 0)
(0.00173541 0.454784 0)
(0.00293426 0.471118 0)
(0.00226745 0.475103 0)
(0.00096591 0.478651 0)
(-0.00142232 0.485059 0)
(-0.00422476 0.494258 0)
(-0.00733033 0.506435 0)
(-0.0108612 0.522008 0)
(-0.0150889 0.541745 0)
(-0.01965 0.56679 0)
(-0.0235026 0.598221 0)
(-0.0253233 0.637008 0)
(-0.0237421 0.683825 0)
(-0.0181499 0.73859 0)
(-0.00947514 0.800307 0)
(0.00268681 0.879799 0)
(0.0329747 1.01999 0)
(0.10513 1.25665 0)
(0.160802 1.43059 0)
(-0.085673 1.07117 0)
(-0.512015 0.460435 0)
(0.000197181 0.553777 0)
(0.00213675 0.423305 0)
(0.00372981 0.453205 0)
(0.00559613 0.470532 0)
(0.00647805 0.475215 0)
(0.0069498 0.479579 0)
(0.00684507 0.48652 0)
(0.00650944 0.496 0)
(0.00620648 0.508338 0)
(0.00615577 0.523985 0)
(0.00647757 0.543548 0)
(0.00770573 0.567757 0)
(0.0107808 0.597285 0)
(0.0167253 0.632952 0)
(0.0269824 0.675552 0)
(0.0428502 0.725768 0)
(0.0645964 0.783153 0)
(0.0934005 0.851615 0)
(0.140644 0.958817 0)
(0.240861 1.15299 0)
(0.402982 1.39259 0)
(0.433187 1.37061 0)
(0.199849 0.894419 0)
(0.00120796 0.551871 0)
(0.00375916 0.421464 0)
(0.00605814 0.450898 0)
(0.00883752 0.468732 0)
(0.0111787 0.47375 0)
(0.0133663 0.478485 0)
(0.0154036 0.485608 0)
(0.0175571 0.49504 0)
(0.0200861 0.507077 0)
(0.0233282 0.52206 0)
(0.0277384 0.540466 0)
(0.0338863 0.562818 0)
(0.0426613 0.589574 0)
(0.0550664 0.621331 0)
(0.0723761 0.658775 0)
(0.0962559 0.702357 0)
(0.128167 0.752247 0)
(0.169833 0.809148 0)
(0.228073 0.883354 0)
(0.329264 1.00689 0)
(0.518041 1.19694 0)
(0.717885 1.32073 0)
(0.783818 1.18096 0)
(0.00201001 0.548638 0)
(0.00540567 0.418949 0)
(0.00846453 0.447673 0)
(0.0122975 0.465691 0)
(0.0160194 0.470749 0)
(0.0198067 0.475502 0)
(0.0237931 0.482438 0)
(0.0282368 0.491473 0)
(0.0334203 0.502747 0)
(0.0396689 0.516554 0)
(0.0475692 0.533231 0)
(0.0577586 0.553109 0)
(0.0710524 0.576507 0)
(0.088428 0.603741 0)
(0.111098 0.635186 0)
(0.140767 0.671004 0)
(0.179274 0.711172 0)
(0.228804 0.755323 0)
(0.293152 0.804759 0)
(0.385968 0.869369 0)
(0.54399 0.969452 0)
(0.7818 1.07591 0)
(0.997888 1.06882 0)
(0.00266144 0.544192 0)
(0.00697595 0.41569 0)
(0.0107718 0.443442 0)
(0.0157178 0.461418 0)
(0.0207139 0.466305 0)
(0.025966 0.470798 0)
(0.0316628 0.477259 0)
(0.0380919 0.485561 0)
(0.0455455 0.495752 0)
(0.0543702 0.508006 0)
(0.0651295 0.522581 0)
(0.0784514 0.539605 0)
(0.0951031 0.559278 0)
(0.116009 0.581642 0)
(0.142311 0.606808 0)
(0.175582 0.634564 0)
(0.217478 0.664475 0)
(0.270177 0.695651 0)
(0.336184 0.726763 0)
(0.421046 0.756643 0)
(0.540409 0.788485 0)
(0.723461 0.823786 0)
(0.943844 0.804213 0)
(0.00322455 0.538626 0)
(0.00842924 0.411712 0)
(0.0128842 0.438228 0)
(0.0189267 0.455984 0)
(0.0250594 0.460563 0)
(0.0316102 0.464594 0)
(0.038761 0.470371 0)
(0.0468415 0.477697 0)
(0.0561357 0.486555 0)
(0.0669834 0.497032 0)
(0.0799065 0.509258 0)
(0.0955161 0.523254 0)
(0.114502 0.539076 0)
(0.13769 0.556569 0)
(0.166061 0.575595 0)
(0.200964 0.59567 0)
(0.243714 0.61604 0)
(0.296007 0.635471 0)
(0.359765 0.65207 0)
(0.436933 0.662756 0)
(0.531898 0.662242 0)
(0.654166 0.649171 0)
(0.810008 0.600833 0)
(0.00373988 0.532047 0)
(0.00973215 0.407089 0)
(0.0147468 0.432099 0)
(0.0218066 0.449497 0)
(0.0289148 0.453669 0)
(0.0365713 0.457105 0)
(0.0449218 0.462053 0)
(0.0543116 0.468274 0)
(0.0650259 0.47565 0)
(0.0773772 0.484223 0)
(0.0918393 0.494022 0)
(0.108982 0.504998 0)
(0.129398 0.517044 0)
(0.153783 0.529904 0)
(0.182926 0.543222 0)
(0.217901 0.556417 0)
(0.259721 0.568527 0)
(0.309445 0.578248 0)
(0.368402 0.583568 0)
(0.437188 0.581838 0)
(0.517122 0.568371 0)
(0.606312 0.538202 0)
(0.708696 0.481762 0)
(0.00422319 0.524568 0)
(0.0108595 0.40191 0)
(0.0163362 0.425176 0)
(0.0242819 0.442099 0)
(0.0321931 0.445798 0)
(0.0407465 0.448562 0)
(0.0500601 0.452594 0)
(0.0604479 0.457639 0)
(0.0721814 0.463487 0)
(0.0855685 0.470137 0)
(0.101027 0.47755 0)
(0.119047 0.485619 0)
(0.140129 0.494114 0)
(0.164836 0.502736 0)
(0.193787 0.510991 0)
(0.227737 0.518284 0)
(0.267439 0.523579 0)
(0.31347 0.525634 0)
(0.366527 0.522616 0)
(0.426609 0.512235 0)
(0.494079 0.491649 0)
(0.565809 0.456732 0)
(0.639875 0.401764 0)
(0.00467155 0.516325 0)
(0.0118009 0.396271 0)
(0.0176567 0.417607 0)
(0.0263189 0.433967 0)
(0.0348573 0.437155 0)
(0.0440918 0.439211 0)
(0.0541214 0.442299 0)
(0.0652226 0.446129 0)
(0.0776356 0.450467 0)
(0.091659 0.455253 0)
(0.107652 0.460403 0)
(0.12601 0.465759 0)
(0.147152 0.471042 0)
(0.171509 0.475904 0)
(0.199551 0.479817 0)
(0.231764 0.482165 0)
(0.268644 0.482012 0)
(0.310469 0.478197 0)
(0.357444 0.469199 0)
(0.409205 0.453099 0)
(0.465415 0.427931 0)
(0.523868 0.391158 0)
(0.581253 0.338989 0)
(0.00508167 0.507443 0)
(0.012556 0.390261 0)
(0.0187221 0.40954 0)
(0.0279186 0.425277 0)
(0.0369027 0.427929 0)
(0.0466206 0.429274 0)
(0.0571255 0.431427 0)
(0.0686729 0.434065 0)
(0.0814683 0.436949 0)
(0.0957825 0.439974 0)
(0.111921 0.443028 0)
(0.130191 0.445915 0)
(0.150924 0.448356 0)
(0.174444 0.449966 0)
(0.201083 0.45025 0)
(0.231147 0.448576 0)
(0.264891 0.444171 0)
(0.302386 0.435996 0)
(0.343545 0.42284 0)
(0.387826 0.403218 0)
(0.434523 0.375701 0)
(0.481967 0.338801 0)
(0.527235 0.290066 0)
(0.00545014 0.498032 0)
(0.0131387 0.383953 0)
(0.0195451 0.401112 0)
(0.0290998 0.41619 0)
(0.0383512 0.418296 0)
(0.0483707 0.418947 0)
(0.0591311 0.420191 0)
(0.0708834 0.4217 0)
(0.0837961 0.423221 0)
(0.0981082 0.424624 0)
(0.114069 0.42579 0)
(0.131919 0.426497 0)
(0.151908 0.426475 0)
(0.174269 0.425341 0)
(0.199206 0.422645 0)
(0.226902 0.417793 0)
(0.257442 0.410129 0)
(0.290748 0.398807 0)
(0.326588 0.38287 0)
(0.36437 0.361226 0)
(0.403311 0.332878 0)
(0.44205 0.296963 0)
(0.478173 0.251892 0)
(0.00576979 0.488202 0)
(0.0135751 0.377439 0)
(0.0201211 0.392459 0)
(0.0298863 0.406868 0)
(0.0392408 0.408446 0)
(0.0493996 0.408431 0)
(0.0602246 0.408818 0)
(0.0719754 0.409282 0)
(0.0847784 0.409559 0)
(0.0988506 0.40951 0)
(0.114385 0.409006 0)
(0.131555 0.407828 0)
(0.150547 0.405708 0)
(0.171529 0.402296 0)
(0.194609 0.397182 0)
(0.219867 0.389862 0)
(0.247285 0.37976 0)
(0.27669 0.366223 0)
(0.30778 0.34851 0)
(0.339983 0.325825 0)
(0.372558 0.297474 0)
(0.404405 0.262964 0)
(0.433586 0.221273 0)
(0.00604191 0.478043 0)
(0.0139086 0.370818 0)
(0.0204326 0.3837 0)
(0.0303122 0.397468 0)
(0.0396187 0.398549 0)
(0.0497795 0.397908 0)
(0.0605101 0.397517 0)
(0.0720875 0.397028 0)
(0.0846006 0.396191 0)
(0.0982357 0.394864 0)
(0.113145 0.392901 0)
(0.129444 0.390104 0)
(0.147273 0.386219 0)
(0.166743 0.380946 0)
(0.187904 0.373913 0)
(0.210751 0.364701 0)
(0.235201 0.352829 0)
(0.26104 0.337782 0)
(0.287942 0.31901 0)
(0.315374 0.295934 0)
(0.342672 0.268058 0)
(0.368951 0.235105 0)
(0.392697 0.196437 0)
(0.00630334 0.467586 0)
(0.0142003 0.364252 0)
(0.0204471 0.374931 0)
(0.0304064 0.3881 0)
(0.0395318 0.388711 0)
(0.0495825 0.387513 0)
(0.0600879 0.386422 0)
(0.0713493 0.385089 0)
(0.0834388 0.383268 0)
(0.0964929 0.380832 0)
(0.110632 0.37762 0)
(0.125938 0.37346 0)
(0.142513 0.368124 0)
(0.16042 0.36135 0)
(0.179662 0.352823 0)
(0.200188 0.34219 0)
(0.22187 0.329063 0)
(0.244483 0.313037 0)
(0.267709 0.293713 0)
(0.291062 0.270675 0)
(0.313962 0.243567 0)
(0.33569 0.212223 0)
(0.355053 0.17626 0)
(0.00662416 0.456803 0)
(0.0144994 0.357973 0)
(0.0201634 0.366271 0)
(0.0301869 0.378855 0)
(0.039015 0.379019 0)
(0.0488694 0.377349 0)
(0.0590424 0.375638 0)
(0.0698808 0.373575 0)
(0.0814469 0.370908 0)
(0.0938292 0.367522 0)
(0.107119 0.363265 0)
(0.121376 0.357982 0)
(0.136667 0.351474 0)
(0.153024 0.343514 0)
(0.170415 0.333842 0)
(0.188757 0.322166 0)
(0.207906 0.308178 0)
(0.227638 0.291568 0)
(0.247662 0.272048 0)
(0.267547 0.249328 0)
(0.286792 0.223157 0)
(0.304803 0.193419 0)
(0.320618 0.159884 0)
(0.00704685 0.445644 0)
(0.0147987 0.352157 0)
(0.0196583 0.357893 0)
(0.0296661 0.369827 0)
(0.0380868 0.369577 0)
(0.0476748 0.367518 0)
(0.0574166 0.365267 0)
(0.0677566 0.362574 0)
(0.0787267 0.359191 0)
(0.0903844 0.355001 0)
(0.102794 0.349879 0)
(0.115999 0.343682 0)
(0.130034 0.336244 0)
(0.144909 0.327367 0)
(0.160569 0.316838 0)
(0.176916 0.304422 0)
(0.193802 0.289879 0)
(0.21102 0.272973 0)
(0.228305 0.253501 0)
(0.245292 0.23127 0)
(0.261556 0.20611 0)
(0.276598 0.177926 0)
(0.289635 0.146576 0)
(0.00754543 0.434092 0)
(0.015054 0.346871 0)
(0.0190186 0.349992 0)
(0.0288399 0.361122 0)
(0.0367416 0.360492 0)
(0.0459907 0.358108 0)
(0.055198 0.35539 0)
(0.064973 0.35215 0)
(0.0752874 0.348159 0)
(0.0861811 0.343294 0)
(0.0977011 0.33746 0)
(0.109874 0.330529 0)
(0.122711 0.322359 0)
(0.1362 0.312788 0)
(0.150276 0.301633 0)
(0.16484 0.28871 0)
(0.179751 0.273834 0)
(0.194818 0.25683 0)
(0.209813 0.237554 0)
(0.224435 0.215888 0)
(0.238339 0.191724 0)
(0.251106 0.164991 0)
(0.262108 0.135591 0)
(0.00806039 0.422182 0)
(0.0152388 0.342152 0)
(0.0182473 0.342744 0)
(0.0276793 0.352849 0)
(0.0349498 0.35186 0)
(0.0437629 0.349209 0)
(0.0523197 0.346084 0)
(0.0614526 0.342376 0)
(0.0710395 0.337863 0)
(0.0811154 0.332432 0)
(0.0917224 0.32601 0)
(0.102863 0.31849 0)
(0.114535 0.309747 0)
(0.126713 0.299646 0)
(0.139324 0.288034 0)
(0.152281 0.274769 0)
(0.165453 0.259709 0)
(0.178671 0.242727 0)
(0.191745 0.223721 0)
(0.204433 0.202622 0)
(0.216471 0.17937 0)
(0.22751 0.153919 0)
(0.237066 0.126194 0)
(0.00855426 0.409973 0)
(0.0153439 0.338051 0)
(0.017302 0.336307 0)
(0.0261575 0.345135 0)
(0.0326747 0.343802 0)
(0.0409205 0.340932 0)
(0.0486951 0.337456 0)
(0.0570866 0.333345 0)
(0.0658431 0.32838 0)
(0.0750122 0.322473 0)
(0.0846352 0.315564 0)
(0.094692 0.307565 0)
(0.10517 0.298368 0)
(0.116036 0.287857 0)
(0.127223 0.27591 0)
(0.138652 0.26242 0)
(0.150207 0.247273 0)
(0.161744 0.230377 0)
(0.173103 0.211663 0)
(0.184088 0.191083 0)
(0.194512 0.168612 0)
(0.204083 0.144229 0)
(0.212453 0.117875 0)
(0.00901794 0.397536 0)
(0.0153313 0.334624 0)
(0.0161815 0.330833 0)
(0.0242812 0.338141 0)
(0.0299027 0.336472 0)
(0.0374306 0.333423 0)
(0.0442818 0.329647 0)
(0.0518116 0.325187 0)
(0.0596091 0.319827 0)
(0.0677534 0.313519 0)
(0.0762778 0.306209 0)
(0.0851477 0.29782 0)
(0.0943432 0.288266 0)
(0.103829 0.277444 0)
(0.113548 0.265259 0)
(0.123426 0.251629 0)
(0.133358 0.236461 0)
(0.143227 0.219689 0)
(0.152895 0.201258 0)
(0.1622 0.181135 0)
(0.171012 0.159315 0)
(0.179088 0.135797 0)
(0.186191 0.110544 0)
(0.00941676 0.384996 0)
(0.015098 0.331855 0)
(0.0149221 0.326442 0)
(0.0221005 0.332037 0)
(0.0266798 0.330039 0)
(0.03335 0.326839 0)
(0.0391501 0.322801 0)
(0.0457051 0.318038 0)
(0.0524192 0.31234 0)
(0.0594258 0.305698 0)
(0.0667356 0.298067 0)
(0.0743088 0.289373 0)
(0.082125 0.279549 0)
(0.0901454 0.268509 0)
(0.0983236 0.256172 0)
(0.106589 0.242469 0)
(0.114845 0.227331 0)
(0.122993 0.210709 0)
(0.130915 0.192553 0)
(0.13848 0.172845 0)
(0.145597 0.151591 0)
(0.152048 0.128796 0)
(0.15768 0.104458 0)
(0.00966348 0.372618 0)
(0.01452 0.32964 0)
(0.0135294 0.323174 0)
(0.0196869 0.326953 0)
(0.0231224 0.324641 0)
(0.0288398 0.321292 0)
(0.0335075 0.31702 0)
(0.0390191 0.311994 0)
(0.0445675 0.306017 0)
(0.050371 0.299113 0)
(0.0564026 0.291235 0)
(0.062625 0.28232 0)
(0.0690215 0.27231 0)
(0.0755505 0.261131 0)
(0.0821709 0.248714 0)
(0.0888169 0.234996 0)
(0.0954037 0.219931 0)
(0.101844 0.203484 0)
(0.108042 0.185613 0)
(0.113896 0.166308 0)
(0.119334 0.145574 0)
(0.124162 0.123413 0)
(0.128286 0.099877 0)
(0.00965048 0.360727 0)
(0.0135277 0.327866 0)
(0.0119805 0.320955 0)
(0.0171053 0.322912 0)
(0.0193813 0.320325 0)
(0.0241199 0.316792 0)
(0.0276445 0.312315 0)
(0.0321051 0.30706 0)
(0.0364819 0.300865 0)
(0.0410935 0.293767 0)
(0.0458656 0.285709 0)
(0.0507712 0.276643 0)
(0.0557967 0.266516 0)
(0.060901 0.255261 0)
(0.0660469 0.242816 0)
(0.0711769 0.229127 0)
(0.0762186 0.21417 0)
(0.0810954 0.197916 0)
(0.0857346 0.180334 0)
(0.0900543 0.161417 0)
(0.0939998 0.141157 0)
(0.0974039 0.119557 0)
(0.100204 0.0967293 0)
(0.00928543 0.3497 0)
(0.012111 0.326523 0)
(0.0102841 0.319678 0)
(0.0144003 0.3199 0)
(0.0155984 0.317096 0)
(0.0193891 0.313333 0)
(0.0218389 0.308676 0)
(0.0253007 0.303233 0)
(0.0285737 0.296875 0)
(0.0320719 0.289634 0)
(0.035676 0.281447 0)
(0.0393737 0.272281 0)
(0.0431529 0.262081 0)
(0.0469776 0.250792 0)
(0.0508123 0.238356 0)
(0.0546095 0.224732 0)
(0.0583087 0.209901 0)
(0.061847 0.19384 0)
(0.0651737 0.176532 0)
(0.0682088 0.15796 0)
(0.0709245 0.138121 0)
(0.0731664 0.117003 0)
(0.0748936 0.0947939 0)
(0.00841325 0.339853 0)
(0.0102111 0.325526 0)
(0.00844748 0.319195 0)
(0.0115747 0.317832 0)
(0.0118879 0.314885 0)
(0.0147867 0.310844 0)
(0.0163036 0.306047 0)
(0.0188595 0.300442 0)
(0.0211382 0.293959 0)
(0.0236465 0.286608 0)
(0.0262171 0.278324 0)
(0.0288524 0.269082 0)
(0.031543 0.258833 0)
(0.0342636 0.247529 0)
(0.0369762 0.235117 0)
(0.0396379 0.221566 0)
(0.0421992 0.206865 0)
(0.0446178 0.190984 0)
(0.0468511 0.173918 0)
(0.048816 0.15564 0)
(0.0505108 0.136171 0)
(0.0517697 0.115466 0)
(0.0525747 0.0937795 0)
(0.00733697 0.332166 0)
(0.00827005 0.325021 0)
(0.00663822 0.319193 0)
(0.00883214 0.316579 0)
(0.00846741 0.313556 0)
(0.0105799 0.309258 0)
(0.01133 0.304379 0)
(0.0131001 0.298645 0)
(0.0145356 0.292078 0)
(0.0161985 0.284657 0)