/*--------------------------------*- C++ -*----------------------------------*\
  =========                 |
  \\      /  F ield         | OpenFOAM: The Open Source CFD Toolbox
   \\    /   O peration     | Website:  https://openfoam.org
    \\  /    A nd           | Version:  13
     \\/     M anipulation  |
\*---------------------------------------------------------------------------*/
FoamFile
{
    format      ascii;
    class       surfaceScalarField;
    location    "1";
    object      alphaPhi.water;
}
// * * * * * * * * * * * * * * * * * * * * * * * * * * * * * * * * * * * * * //

dimensions      [0 3 -1 0 0 0 0];

internalField   nonuniform List<scalar> 
4432
(
3.31937e-06
-3.31937e-06
3.39148e-06
-7.21047e-08
-3.76248e-07
3.76773e-06
-4.5e-06
4.12375e-06
-4.81142e-06
3.11416e-07
-1.52804e-06
-3.28338e-06
1.41912e-06
-2.94716e-06
2.23376e-06
-8.14641e-07
1.742e-06
4.91755e-07
2.70716e-07
1.47128e-06
-1.90854e-06
2.17926e-06
-4.16698e-06
2.25844e-06
-5.30918e-06
1.1422e-06
-5.97344e-06
7.509e-07
-1.03493e-05
4.35725e-06
-2.00618e-05
9.262e-06
-2.97163e-05
9.71105e-06
-3.27187e-05
3.12087e-06
-2.90926e-05
-3.04442e-06
-2.39922e-05
-5.6885e-06
-1.64629e-05
-7.66842e-06
-7.09203e-06
-9.37084e-06
-7.0921e-06
-1.80581e-06
-1.51356e-06
-4.49931e-06
2.6214e-06
-7.26451e-06
6.53292e-06
-8.29003e-06
5.14928e-06
-6.34604e-06
-1.63258e-06
-2.44087e-06
-7.18855e-06
8.61682e-07
-6.24972e-06
1.95309e-06
-1.90605e-06
1.38661e-06
1.05823e-06
-1.94703e-07
3.0526e-06
-2.42976e-06
4.41431e-06
-5.13466e-06
4.96332e-06
-8.71527e-06
4.74135e-06
-1.32408e-05
5.68689e-06
-1.96746e-05
1.0793e-05
-2.59626e-05
1.53527e-05
-2.81044e-05
1.14714e-05
-2.56322e-05
6.51671e-07
-2.22191e-05
-6.65201e-06
-1.86089e-05
-9.48901e-06
-1.3228e-05
-1.36262e-05
-5.6678e-06
-1.6931e-05
-1.276e-05
-4.23317e-06
2.71961e-06
-7.85632e-06
6.24455e-06
-9.59054e-06
8.26714e-06
-9.34746e-06
4.9062e-06
-7.17297e-06
-3.80708e-06
-3.21512e-06
-1.11464e-05
1.84438e-07
-9.64929e-06
1.52735e-06
-3.24896e-06
1.32509e-06
1.26047e-06
2.50585e-07
4.12711e-06
-1.13321e-06
5.7981e-06
-3.07862e-06
6.90875e-06
-6.53676e-06
8.20073e-06
-1.12957e-05
1.10539e-05
-1.61594e-05
1.56329e-05
-1.83907e-05
1.75788e-05
-1.76069e-05
1.06638e-05
-1.7274e-05
-2.03867e-08
-1.75842e-05
-6.76003e-06
-1.606e-05
-1.12414e-05
-1.17741e-05
-1.79121e-05
-5.074e-06
-2.3631e-05
-1.78343e-05
-4.09159e-06
6.8112e-06
-7.22792e-06
9.38089e-06
-8.44945e-06
9.48866e-06
-8.23321e-06
4.68996e-06
-6.21231e-06
-5.82797e-06
-2.69711e-06
-1.46616e-05
-5.50354e-09
-1.23409e-05
9.88285e-07
-4.24273e-06
8.14557e-07
1.43419e-06
-3.89784e-08
4.98066e-06
-1.07428e-06
6.8334e-06
-2.2488e-06
8.08328e-06
-4.07885e-06
1.0031e-05
-6.57348e-06
1.357e-05
-8.26073e-06
1.8221e-05
-8.84008e-06
1.88906e-05
-1.01103e-05
1.21013e-05
-1.3554e-05
3.34196e-06
-1.71537e-05
-3.16031e-06
-1.71316e-05
-1.12635e-05
-1.28341e-05
-2.22096e-05
-5.40222e-06
-3.10629e-05
-2.32364e-05
-2.56076e-06
9.37196e-06
-4.56177e-06
1.13819e-05
-5.34366e-06
1.02705e-05
-5.02397e-06
4.37028e-06
-2.90564e-06
-7.94626e-06
-3.66328e-07
-1.72009e-05
7.43203e-07
-1.34504e-05
7.70596e-07
-4.2701e-06
1.78067e-07
2.0267e-06
-8.23397e-07
5.98212e-06
-1.85116e-06
7.86116e-06
-2.66706e-06
8.89919e-06
-3.43858e-06
1.08026e-05
-3.81403e-06
1.39457e-05
-3.60929e-06
1.80207e-05
-4.13e-06
1.95313e-05
-7.65645e-06
1.56507e-05
-1.38845e-05
9.57003e-06
-1.87239e-05
1.67902e-06
-1.89368e-05
-1.10506e-05
-1.39573e-05
-2.71889e-05
-5.89697e-06
-3.91231e-05
-2.91333e-05
-4.54221e-07
9.82619e-06
-9.201e-07
1.18478e-05
-1.12448e-06
1.04749e-05
-1.41421e-07
3.38724e-06
2.20041e-06
-1.02883e-05
3.47583e-06
-1.84729e-05
2.95326e-06
-1.29113e-05
1.63167e-06
-2.94686e-06
3.58634e-07
3.29973e-06
-9.63414e-07
7.30416e-06
-2.1914e-06
9.08914e-06
-2.93387e-06
9.64168e-06
-3.48456e-06
1.13533e-05
-3.38944e-06
1.38506e-05
-2.91405e-06
1.75454e-05
-3.80433e-06
2.04218e-05
-8.15592e-06
2.00022e-05
-1.48963e-05
1.63105e-05
-1.99538e-05
6.73651e-06
-2.00776e-05
-1.09264e-05
-1.50457e-05
-3.22193e-05
-7.32495e-06
-4.68421e-05
-3.64577e-05
1.94696e-06
7.87923e-06
3.11652e-06
1.06782e-05
3.76906e-06
9.82238e-06
5.63807e-06
1.51822e-06
7.80824e-06
-1.24584e-05
8.13319e-06
-1.87985e-05
6.56204e-06
-1.13447e-05
4.34076e-06
-7.16985e-07
2.39481e-06
5.24569e-06
5.4489e-07
9.1541e-06
-8.83752e-07
1.05178e-05
-1.51831e-06
1.02762e-05
-1.95218e-06
1.17871e-05
-1.7168e-06
1.36151e-05
-1.62677e-06
1.74553e-05
-3.12543e-06
2.19204e-05
-8.25302e-06
2.51299e-05
-1.58505e-05
2.39079e-05
-2.1649e-05
1.25351e-05
-2.20227e-05
-1.05469e-05
-1.72269e-05
-3.69991e-05
-9.39853e-06
-5.46514e-05
-4.5776e-05
4.05871e-06
3.82052e-06
6.92586e-06
7.81107e-06
8.8814e-06
7.86683e-06
1.13277e-05
-9.28045e-07
1.25058e-05
-1.36367e-05
1.15677e-05
-1.78593e-05
9.67374e-06
-9.45518e-06
7.44991e-06
1.51417e-06
5.58859e-06
7.10701e-06
3.37851e-06
1.13642e-05
1.83241e-06
1.20639e-05
1.41812e-06
1.06905e-05
1.21526e-06
1.199e-05
1.41188e-06
1.34185e-05
8.03786e-07
1.80634e-05
-1.65415e-06
2.43783e-05
-7.95147e-06
3.14272e-05
-1.78245e-05
3.3781e-05
-2.59084e-05
2.06194e-05
-2.66174e-05
-9.81227e-06
-1.99203e-05
-4.35383e-05
-8.9581e-06
-6.34055e-05
-5.3966e-05
5.32413e-07
-5.34237e-07
-9.24958e-06
9.83141e-06
-1.79775e-06
-7.15677e-06
2.15435e-05
-1.94694e-05
3.95218e-05
-1.54307e-05
4.07001e-05
-1.00789e-06
3.04639e-05
1.02465e-05
1.87034e-05
1.17715e-05
6.32065e-06
9.35521e-06
-3.25416e-06
9.54072e-06
-9.98148e-06
6.69324e-06
-8.94725e-06
-1.07268e-06
1.48061e-06
-1.1745e-05
1.42144e-05
-1.34003e-05
7.4137e-06
6.2813e-06
-9.85165e-06
1.67459e-05
-1.78606e-05
6.41573e-06
-8.78889e-06
-8.72952e-06
-6.93437e-06
-7.13396e-06
6.63035e-06
-8.80568e-06
1.1817e-05
2.27188e-06
-1.5144e-05
1.95977e-05
-3.93139e-05
3.56121e-05
-2.38741e-05
3.61837e-05
-1.29826e-06
2.94929e-05
1.69482e-05
1.47529e-05
2.65218e-05
-3.97178e-06
2.47614e-05
-1.96655e-05
2.49393e-05
-3.08535e-05
1.73597e-05
-3.21733e-05
1.00422e-08
-2.16996e-05
-2.22494e-05
-6.22754e-06
-2.87741e-05
1.1473e-06
-8.02915e-07
-7.0326e-06
2.43974e-05
-1.25444e-05
1.22861e-05
-4.76108e-06
-1.6113e-05
-1.18787e-05
-8.18274e-06
1.48437e-05
-6.92742e-06
1.08446e-05
1.64348e-06
-2.40536e-05
1.78096e-05
-6.44434e-05
2.43847e-05
-3.16735e-05
2.02795e-05
2.8328e-06
1.19883e-05
2.52259e-05
-4.30256e-06
3.88271e-05
-2.38612e-05
4.20775e-05
-3.94935e-05
4.01792e-05
-5.07922e-05
2.83047e-05
-5.0595e-05
6.99041e-07
-4.25569e-05
-2.82298e-05
-2.53836e-05
-4.53869e-05
-1.04712e-05
-1.49476e-05
-6.18648e-06
2.08494e-05
-6.83462e-06
1.32573e-05
-3.50431e-06
-1.77036e-05
-1.55311e-05
-6.49076e-06
2.14454e-05
-6.63336e-06
1.18018e-05
-3.31174e-06
-2.77181e-05
2.98737e-06
-7.093e-05
3.65798e-06
-3.30453e-05
-4.27379e-06
1.07776e-05
-1.67248e-05
3.76834e-05
-3.25987e-05
5.23234e-05
-4.90867e-05
5.58366e-05
-5.68684e-05
4.65037e-05
-3.22502e-05
1.13042e-05
-2.54736e-05
2.13114e-07
-4.23712e-05
-8.65395e-06
-4.06569e-05
-4.94303e-05
-2.55853e-05
-2.96108e-05
-1.38808e-05
9.45333e-06
-8.62146e-06
8.28798e-06
-7.53153e-06
-2.01814e-05
-2.20283e-05
-4.32716e-06
2.58676e-05
-6.46263e-06
1.58551e-05
-9.64608e-06
-2.68155e-05
-1.39267e-05
-6.66865e-05
-2.22826e-05
-2.47087e-05
-3.34656e-05
2.19585e-05
-4.38396e-05
4.80348e-05
-5.49688e-05
6.19648e-05
-5.05745e-05
4.80852e-05
-1.35463e-05
1.02395e-05
-1.8883e-06
1.70451e-06
-1.83411e-06
6.59991e-08
-8.39704e-06
-2.27677e-06
-4.68241e-05
-1.43267e-05
-3.76013e-05
-4.12137e-05
-2.41235e-05
-3.61609e-06
-1.57002e-05
4.87141e-07
-7.81428e-06
-2.86995e-05
-3.01948e-05
-1.05672e-06
2.70726e-05
-4.76928e-06
1.88098e-05
-1.3054e-05
-2.30159e-05
-2.58489e-05
-5.40661e-05
-4.07443e-05
-1.03308e-05
-5.26246e-05
3.3822e-05
-6.02731e-05
5.53098e-05
-4.6531e-05
4.65251e-05
-9.59412e-06
1.01604e-05
-1.9461e-06
2.55769e-06
-7.92281e-07
5.24246e-07
-8.00339e-07
4.22278e-08
-2.37174e-06
-7.64203e-07
-1.38303e-05
-2.9879e-06
-4.53007e-05
-1.39786e-05
-3.04682e-05
-1.62435e-05
-2.1132e-05
-3.30646e-06
-1.35472e-05
-1.65847e-05
-2.17504e-05
4.66286e-06
2.25094e-05
1.25475e-06
2.146e-05
-9.02437e-06
-1.38357e-05
-2.84741e-05
-3.47966e-05
-4.80208e-05
8.66375e-06
-5.99582e-05
4.54922e-05
-5.28934e-05
4.13921e-05
-1.0538e-05
7.31053e-06
-2.43584e-06
1.9155e-06
-6.52688e-07
7.47702e-07
-3.79587e-07
2.37084e-07
-3.94691e-07
4.8124e-08
-1.01276e-06
-1.65778e-07
-3.60665e-06
-4.60738e-07
-1.69293e-05
-8.35401e-07
-2.52941e-05
-2.16932e-06
-1.05661e-05
-1.56223e-06
-4.8165e-06
-5.46304e-06
-1.05989e-05
9.25005e-06
1.33129e-05
9.56918e-06
2.03819e-05
2.21143e-06
-5.87553e-06
-2.04114e-05
-1.21429e-05
-3.98679e-05
2.64395e-05
-4.24505e-05
3.45453e-05
-1.00872e-05
4.74812e-06
-2.00414e-06
0
-6.40562e-07
5.253e-07
-2.58247e-07
3.41237e-07
-1.74115e-07
1.49201e-07
-1.65757e-07
3.75865e-08
-2.72105e-07
-6.30516e-08
-5.7871e-07
-1.72623e-07
-1.13724e-06
-3.42227e-07
-2.71824e-06
-7.55267e-07
-2.98738e-06
-1.6389e-06
-1.40531e-06
-7.06717e-06
-1.70678e-05
1.73399e-05
-8.115e-06
2.81787e-05
-1.72561e-06
3.29834e-05
3.06207e-06
3.64831e-05
-4.44378e-06
3.41714e-05
-1.12594e-05
2.63628e-05
-1.00121e-05
1.66947e-05
2.12389e-07
4.39737e-06
1.38116e-05
-6.96109e-06
1.84658e-05
-1.12514e-05
1.57581e-05
-8.59983e-06
8.57824e-06
-5.81688e-06
6.48877e-06
-8.66514e-06
1.32942e-05
-1.11624e-05
1.0357e-05
-1.54721e-05
1.13128e-05
-2.44507e-05
1.57163e-05
-4.34041e-05
1.66283e-05
-6.41022e-05
2.40048e-05
-9.01492e-05
1.94704e-05
-7.86512e-05
-2.31074e-05
-4.77602e-05
-5.03778e-05
-1.50771e-05
-8.89865e-05
-8.65788e-05
1.60361e-05
1.66519e-05
-2.5924e-05
3.72037e-05
-1.23115e-05
5.10654e-05
-1.22377e-06
5.01443e-05
-2.8979e-06
3.54223e-05
3.30163e-06
1.46063e-05
1.07793e-05
-1.23751e-05
2.7194e-05
-3.96715e-05
3.99348e-05
-6.41716e-05
3.41232e-05
-7.50644e-05
2.67369e-05
-6.8554e-05
9.28892e-06
-2.6635e-05
3.1149e-06
-1.91078e-05
5.7741e-06
-2.16661e-05
6.08184e-06
-2.63583e-05
4.76165e-06
-2.35027e-05
2.58634e-06
-2.98832e-05
7.71641e-06
-0.000101327
1.47949e-05
-0.000113702
1.15767e-05
-8.18687e-05
-3.29919e-05
-6.08553e-05
-9.11307e-05
-3.66127e-05
-0.000129661
-0.000104107
-1.89611e-05
1.47214e-05
-4.17609e-05
3.31502e-05
-3.20217e-05
3.53501e-05
-4.0108e-06
3.48622e-05
5.22431e-06
8.44599e-06
2.96738e-05
-3.57064e-05
5.49821e-05
-8.98761e-05
8.13392e-05
-0.000123903
6.57718e-05
-7.87197e-05
1.49778e-05
-3.62657e-05
2.54439e-06
-2.94576e-05
0
-2.84664e-05
0
-3.01831e-05
5.36719e-06
-3.21096e-05
5.92899e-06
-3.47458e-05
5.30314e-06
-3.34902e-05
6.2643e-06
-4.89603e-05
7.73344e-06
-6.6627e-05
1.20181e-05
-6.28223e-05
2.95536e-06
-7.06582e-05
-5.47853e-05
-0.000101394
-0.00014971
-8.86106e-05
-0.000142074
-0.000103914
-8.88006e-05
-4.73775e-06
-4.41463e-05
-9.2733e-06
-1.43814e-05
-4.7582e-06
-1.94402e-06
-3.79648e-06
2.66066e-06
-4.04049e-05
3.78274e-05
-9.96179e-05
0.00010317
-0.000116816
7.42142e-05
-6.65876e-05
1.06419e-05
-5.96612e-05
1.82225e-06
-7.28146e-05
4.40949e-06
-6.81938e-05
-6.61388e-07
-6.3986e-05
3.68096e-07
-6.67735e-05
2.30568e-06
-6.15068e-05
4.38694e-06
-5.33818e-05
5.94001e-07
-4.3842e-05
4.15561e-07
-2.81815e-05
2.35039e-06
-1.03946e-05
0
-2.82661e-05
1.02821e-06
-0.000134135
-4.53893e-05
-0.00013554
-0.000145527
-0.000135278
-0.000139906
-6.23985e-05
-0.000111269
-1.20866e-05
-1.79014e-05
-2.1316e-06
-2.01928e-06
-3.91687e-06
-9.17393e-07
-1.83838e-05
8.97933e-07
-6.12293e-05
5.18698e-06
-6.82649e-05
1.79007e-05
-2.09991e-05
8.96416e-06
-1.28785e-05
2.7626e-06
-1.42995e-05
1.55082e-06
-5.31119e-05
1.76933e-06
-7.99708e-05
-6.39769e-07
-6.76052e-05
-1.97262e-06
-3.19953e-05
-2.25398e-06
-1.93217e-05
-5.04667e-06
-1.42345e-05
-7.22981e-06
-9.47826e-06
-3.76843e-06
-3.70132e-06
0
-1.1324e-06
0
-1.47819e-06
6.29239e-07
-5.39635e-05
-8.36502e-06
-0.000142343
-9.81045e-05
-0.00013962
-0.000137834
-3.68518e-05
-6.04731e-07
-9.81945e-06
6.20209e-06
-7.0836e-06
6.1677e-07
-9.70123e-06
8.67567e-07
-1.86775e-05
8.7057e-07
-1.44599e-05
0
-9.12846e-06
5.55486e-06
-4.06917e-06
4.71225e-06
-2.41088e-06
2.13207e-06
-1.57346e-06
7.91473e-07
-1.06314e-07
0
-7.29379e-07
-3.76532e-11
-2.70227e-06
-3.19126e-10
-9.07424e-06
-1.48846e-09
-1.16194e-05
-6.9294e-09
-7.62358e-06
-3.35728e-08
-3.98091e-06
-1.37997e-07
-1.94026e-06
0
-8.38331e-07
0
-2.81916e-07
0
-6.9702e-06
-1.22809e-06
-0.000112067
-2.69229e-05
-0.000139415
-0.0001161
-4.95933e-05
-5.14607e-06
-6.65894e-06
2.26574e-05
-9.53837e-06
1.87467e-06
-1.47802e-05
1.65539e-06
-1.73791e-05
9.68912e-07
-6.60682e-06
1.69985e-06
-2.64922e-06
2.76753e-06
-9.25288e-07
3.56018e-06
-2.9032e-07
1.94107e-06
-1.88502e-07
1.03136e-06
-1.16973e-10
6.89325e-08
-1.2668e-10
-1.91057e-13
-4.02751e-10
-1.29563e-11
-1.80649e-09
-7.42216e-11
-8.33348e-09
-4.64553e-10
-4.01673e-08
-2.17688e-09
-1.7327e-07
-7.13831e-09
-3.98731e-07
0
-2.3634e-07
7.86051e-09
0
1.32305e-08
-1.03577e-06
-3.0415e-07
-3.25251e-05
-5.32282e-06
-9.46941e-05
-6.3932e-05
-6.50223e-05
-4.39339e-05
-5.4283e-08
2.72009e-05
-2.04537e-06
2.06099e-06
-3.3559e-06
2.37289e-07
-4.62322e-06
2.20258e-08
-3.09448e-06
1.44367e-06
-4.94646e-06
4.863e-06
-2.21646e-06
5.18597e-06
-4.32021e-07
5.45675e-06
-1.27281e-07
5.60405e-06
-5.0609e-11
6.70054e-07
-4.54471e-11
9.19372e-12
-3.11488e-11
6.937e-13
-5.11586e-11
-2.82491e-11
-2.78213e-10
-2.45719e-10
-1.27065e-09
-1.32136e-09
-7.03124e-09
-2.37637e-09
-2.49985e-08
-3.88331e-09
-2.86945e-08
0
-1.97397e-08
4.14316e-09
-2.48282e-07
-4.18308e-08
-4.96829e-06
-7.18394e-07
-8.57092e-05
-1.00089e-05
-4.30328e-05
-8.447e-05
-8.19083e-08
3.16631e-05
-2.73479e-07
9.16124e-07
-1.86113e-07
6.20227e-08
-9.93283e-07
2.63449e-08
-8.14754e-06
7.83438e-07
-5.43284e-06
2.89084e-06
-3.06655e-06
3.48957e-06
-1.50611e-06
4.90323e-06
-5.81969e-07
6.1142e-06
-4.52631e-11
4.41757e-07
-3.86943e-11
1.11131e-11
-3.43601e-11
6.14181e-12
-6.32914e-11
-1.73372e-11
-2.97372e-10
-1.63107e-10
-3.70314e-09
-2.52112e-09
-6.16247e-09
-7.47701e-09
-1.63897e-08
-7.49864e-09
-1.62436e-08
-5.78751e-09
-7.27714e-09
-2.87427e-09
-3.38957e-08
-4.73797e-09
-7.17564e-07
-2.94252e-08
-1.03144e-05
-4.27645e-07
-5.79158e-06
-6.93074e-05
-5.29492e-07
3.63326e-05
-4.89857e-08
3.95025e-07
-2.66408e-08
1.46832e-08
-5.62974e-08
6.91588e-09
-5.05715e-07
0
-1.87984e-06
0
-3.85477e-06
5.20242e-07
-4.1373e-06
2.59404e-06
-4.03415e-07
9.24088e-07
-2.8281e-11
5.20907e-08
-2.03269e-11
7.35999e-12
-1.61788e-11
2.05642e-12
-3.06304e-11
-2.56354e-12
-1.77439e-10
-1.52766e-11
-9.53989e-09
-3.25651e-10
-1.26608e-08
-2.6423e-09
-1.99401e-08
-6.42927e-09
-2.14629e-08
-1.08946e-08
-4.5937e-09
-6.85127e-09
-6.19596e-10
-7.66847e-10
-2.95517e-08
-6.76908e-11
-4.54594e-07
-1.15667e-09
-2.12384e-08
-6.20262e-06
-2.26154e-07
4.21391e-05
-2.0699e-09
1.5427e-07
-2.82171e-09
5.99627e-09
-2.49982e-08
4.6227e-09
-1.33392e-07
0
-3.07624e-07
0
-8.999e-07
0
-5.73166e-07
2.55128e-08
-3.9186e-08
1.50961e-07
-1.09963e-11
1.31248e-08
-4.75723e-12
2.98285e-12
-2.98325e-12
-5.5399e-14
-4.99831e-12
-9.46869e-13
-1.78416e-11
-1.86402e-12
-3.41057e-10
-4.29875e-12
-2.89634e-09
-4.64522e-12
-7.98246e-09
-1.24678e-12
-9.57102e-09
-4.22618e-12
-2.08496e-09
-6.09256e-11
-9.11231e-12
-1.79132e-10
-6.56603e-11
-4.33046e-13
-9.60078e-10
-2.7054e-11
-7.66848e-11
-2.20606e-08
-9.02165e-08
4.72656e-05
-4.50067e-10
5.83117e-08
-1.05676e-09
2.81828e-09
-1.32933e-08
2.34807e-09
-3.25224e-08
0
-8.42406e-08
0
-1.42106e-07
0
-1.26015e-07
9.14276e-09
-1.15247e-08
2.76372e-08
-4.0996e-12
1.97664e-09
-2.55086e-12
1.12014e-12
-2.46462e-12
-4.55598e-13
-2.51256e-12
-1.01997e-12
-1.8184e-12
-1.98505e-12
-9.3075e-13
-5.24086e-12
-4.52577e-13
-4.87968e-12
-5.35831e-13
-1.07834e-12
-4.51057e-12
-3.33943e-13
-6.53342e-11
-1.55314e-13
-1.60162e-12
-4.15094e-13
-9.62716e-13
-6.58882e-13
-2.46993e-12
-2.44279e-11
-5.10379e-11
-2.63064e-11
-3.43998e-08
5.25248e-05
-1.01967e-09
2.25439e-08
-1.02498e-09
1.42865e-09
-2.51368e-09
7.34077e-10
-6.7316e-09
3.55942e-10
-1.72398e-08
0
-2.79544e-08
2.54732e-10
-2.41776e-08
3.08195e-09
-1.85857e-09
4.31441e-09
-7.43295e-12
2.18618e-10
-6.44808e-12
7.44382e-13
-6.81472e-12
-4.32544e-13
-8.86209e-12
0
-9.07647e-12
-1.24649e-12
-6.32424e-12
-7.9307e-12
-1.81243e-12
-1.0323e-11
-3.05188e-13
-2.69019e-12
-1.29114e-13
-5.6333e-13
-1.12728e-13
-2.24498e-13
-3.42535e-13
-2.38086e-13
-6.15518e-13
-4.09079e-13
-1.20125e-11
-7.64184e-12
-1.6368e-11
-2.72606e-12
-1.28383e-08
5.8045e-05
-6.02225e-10
9.14434e-09
-5.20426e-10
9.96416e-10
-7.69746e-10
4.97263e-10
-1.43765e-09
3.75924e-10
-2.83428e-09
2.58109e-10
-4.41775e-09
8.18488e-10
-3.37771e-09
1.57564e-09
-2.16193e-10
1.13807e-09
-2.81967e-11
3.58627e-11
-3.87648e-11
9.50319e-12
-7.62908e-11
0
-1.0079e-10
0
-1.02193e-10
-1.48952e-11
-6.42522e-11
-6.20434e-11
-1.61217e-11
-6.79345e-11
-1.96029e-12
-1.78816e-11
-2.17433e-13
-2.437e-12
-1.14471e-13
-3.86387e-13
-1.78251e-13
-2.35978e-13
0
-6.00047e-13
-4.17647e-12
-9.31457e-13
-1.09269e-12
-8.16286e-12
-5.02171e-09
6.28406e-05
-2.00586e-10
3.99362e-09
-2.27306e-10
1.04701e-09
-2.66362e-10
4.02108e-10
-3.9712e-10
3.50617e-10
-7.64195e-10
3.71045e-10
-1.07831e-09
7.45387e-10
-7.23234e-10
8.62939e-10
-1.57512e-10
5.42221e-10
-2.22119e-10
9.47879e-11
-7.29146e-10
4.93432e-10
-1.09161e-09
0
-1.18372e-09
0
-1.04027e-09
-3.477e-10
-6.15372e-10
-7.21791e-10
-1.42255e-10
-6.18264e-10
-1.63468e-11
-1.54131e-10
-1.01159e-12
-1.87225e-11
-1.83642e-13
-1.28241e-12
-2.41653e-13
-1.09431e-13
-5.23799e-14
-9.9507e-14
-4.99581e-14
-1.6256e-13
-3.39133e-13
-3.8642e-13
-4.03892e-08
6.46992e-05
9.19898e-11
1.24216e-08
-1.05589e-10
1.09466e-09
-1.16974e-10
3.47965e-10
-1.65732e-10
3.06945e-10
-2.98424e-10
3.62267e-10
-4.10727e-10
6.03892e-10
-7.7114e-10
7.84955e-10
-1.34151e-09
7.52729e-10
-4.0022e-09
2.71504e-09
-1.63547e-08
3.94452e-09
-2.29534e-08
-2.16252e-08
-1.73655e-08
-4.26826e-08
-9.74862e-09
-2.40065e-08
-4.1068e-09
-1.88438e-08
-8.66523e-10
-5.0514e-09
-9.77601e-11
-9.6092e-10
-7.47055e-12
-1.13681e-10
-3.74527e-14
-9.11137e-12
-4.38125e-14
-9.55713e-14
-2.96649e-14
-6.59493e-15
-2.95741e-14
-2.57542e-14
-1.29696e-13
-2.50136e-14
4.07321e-07
6.57729e-05
2.84775e-09
9.91438e-07
-9.78004e-11
3.95025e-09
-7.98846e-11
2.71286e-10
-1.01579e-10
2.61869e-10
-2.65033e-10
4.31006e-10
-8.30079e-10
9.56877e-10
-3.51003e-09
3.09562e-09
-1.64722e-08
1.30082e-08
-5.04469e-08
1.21291e-08
-8.7925e-08
-7.38195e-09
-7.87951e-08
-3.93306e-08
-5.79007e-08
-6.85801e-08
-5.28342e-08
-7.01844e-08
-3.69679e-08
-9.74039e-08
-6.45924e-09
-9.89073e-08
-4.17164e-10
-1.35228e-08
-3.36447e-11
-5.26853e-10
-6.23732e-13
-3.40105e-11
-2.98951e-15
-8.7961e-13
-2.80228e-15
-2.37023e-15
-2.70195e-14
-2.43517e-15
-3.18188e-15
-1.40733e-15
2.35806e-06
6.90737e-06
-2.2393e-09
1.52081e-06
-6.17362e-11
1.67145e-09
-7.87651e-11
2.32938e-10
-1.8829e-10
3.16408e-10
-7.88116e-10
9.60238e-10
-3.05674e-09
3.62269e-09
-2.15753e-08
2.01733e-08
-8.96102e-08
3.31065e-08
-7.10625e-08
2.00465e-08
-6.39017e-08
-4.77438e-09
-3.45594e-08
-5.58003e-09
-2.66955e-08
-8.98884e-09
-2.18089e-08
-7.87415e-08
-9.04608e-09
-1.15643e-07
-1.4694e-09
-1.0662e-07
-2.51047e-10
-9.03867e-08
-6.81829e-11
-3.76627e-09
-7.52725e-12
-4.76336e-10
-4.15649e-15
-7.25849e-12
-4.55705e-16
-4.57715e-15
-4.113e-16
-1.02923e-15
-1.48953e-15
-1.4291e-15
-8.5894e-08
3.64959e-06
-8.7319e-10
5.70661e-07
-4.28288e-11
7.27948e-10
-1.07971e-10
2.18597e-10
-3.92785e-10
5.52016e-10
-1.61366e-09
1.98741e-09
-8.42319e-09
1.03776e-08
-7.79814e-08
5.20653e-08
-7.18301e-08
5.37168e-08
-2.26236e-08
6.6395e-09
-2.19319e-09
-2.51196e-09
-1.45775e-09
-4.48269e-09
-3.04601e-09
-5.62684e-09
6.88839e-09
-1.67825e-08
2.04568e-08
-9.5961e-08
2.31169e-08
-1.08387e-07
1.7302e-08
-8.37071e-08
0
-2.72517e-08
-4.61705e-12
-1.90596e-09
-7.29165e-14
-1.24196e-11
-8.00081e-16
-7.40572e-14
-2.32975e-16
-3.40594e-16
-3.31704e-16
-7.35156e-16
-3.15642e-07
3.91914e-05
-2.67597e-10
2.54805e-07
-4.61477e-11
4.09908e-10
-1.55777e-10
2.29234e-10
-4.67164e-10
7.90003e-10
-1.3612e-09
2.74931e-09
-3.59186e-08
2.24472e-08
-5.54835e-08
5.84921e-08
-1.26661e-08
1.78859e-08
-3.42575e-09
-2.0031e-10
-1.69817e-09
-2.48652e-09
-1.37488e-10
-4.14433e-09
6.52323e-10
-4.64467e-09
9.22658e-09
-2.40049e-08
3.71976e-08
-8.73027e-08
3.71532e-08
-1.07477e-07
2.6905e-08
-7.25658e-08
4.39268e-09
-4.42889e-08
0
-1.49607e-09
-5.98798e-13
-1.8452e-13
-1.17649e-15
-5.85308e-14
-7.12728e-17
-2.38582e-15
-1.30887e-16
-2.73045e-17
-1.50787e-07
6.3793e-05
-1.12183e-10
1.04034e-07
-3.9268e-11
2.76411e-10
-1.37685e-10
2.4889e-10
-7.86024e-11
7.56467e-10
-1.86667e-10
3.08244e-09
-1.3612e-08
1.47621e-08
-1.74988e-08
1.99045e-08
-6.08186e-09
6.84814e-09
-3.567e-09
-1.64762e-09
-5.08162e-10
-7.61136e-09
2.12394e-10
-2.8911e-09
3.4648e-09
-5.70387e-09
3.12835e-08
-1.00097e-07
3.32227e-08
-1.36617e-07
3.09955e-08
-1.03805e-07
1.91317e-08
-5.98374e-08
2.57532e-09
-3.41682e-08
-3.78178e-12
-7.06113e-12
-5.18798e-14
-5.58185e-15
-1.42056e-15
-1.41832e-15
-6.31722e-17
-7.68958e-16
-6.9216e-17
-1.87724e-18
-8.04791e-08
6.49514e-05
-5.71875e-12
2.35023e-08
-2.53297e-11
2.37665e-10
-1.00827e-10
2.66953e-10
-1.04894e-10
7.18466e-10
-4.19291e-10
4.38641e-09
-5.95432e-09
2.14506e-08
-4.58731e-09
4.09284e-08
-4.77459e-09
9.30414e-09
-4.51842e-09
-1.11996e-08
-7.79298e-11
-2.48282e-08
6.01132e-10
-1.86933e-09
1.16337e-08
-2.14624e-08
1.76057e-08
-1.56989e-07
1.35365e-08
-1.29979e-07
2.93905e-09
-9.28243e-08
-3.56101e-09
-5.19024e-08
-8.57501e-11
-3.06356e-09
-6.16595e-14
-2.19668e-14
-1.19761e-15
-4.12715e-14
-2.14476e-16
-1.58571e-15
-3.06861e-17
-5.65168e-17
-7.86228e-18
-8.64701e-19
-6.11275e-09
6.57119e-05
3.35574e-09
1.18352e-07
-1.51512e-11
3.54916e-09
-7.33336e-11
2.98931e-10
-3.03262e-10
9.71332e-10
-1.00084e-09
7.67103e-09
-1.3856e-08
1.18109e-07
-3.47377e-09
9.47258e-08
-1.07768e-08
2.6985e-08
-1.35253e-09
-4.07494e-08
2.61866e-10
-3.03642e-08
4.73852e-10
-9.94189e-10
2.92244e-10
-1.67768e-08
-8.90719e-09
-1.37223e-07
-2.26791e-08
-1.11011e-07
-3.49254e-08
-5.80758e-08
-5.48578e-09
-5.3199e-14
-3.61452e-14
-1.14895e-13
-4.88547e-14
-7.5285e-14
-6.97517e-16
-1.08373e-14
-3.97887e-17
-1.50143e-15
-3.60532e-18
-5.15327e-17
-3.6806e-18
-2.97965e-19
6.4151e-07
6.56751e-05
3.39012e-08
1.06274e-06
3.36525e-10
3.69785e-08
-5.48258e-11
7.14178e-10
0
1.57291e-09
-6.46342e-09
1.22773e-08
-9.22373e-09
1.4031e-07
-5.21506e-09
9.22459e-08
1.52263e-10
2.50874e-08
6.24106e-09
-4.80095e-08
1.7854e-10
-1.42354e-08
-5.84893e-11
-3.69683e-10
-3.00113e-09
-5.08691e-10
-2.00506e-08
-6.17482e-12
-1.7991e-08
-5.65134e-11
-3.92093e-14
-3.02395e-13
-3.88008e-14
-5.35303e-14
-8.26291e-14
-7.4548e-14
-7.21828e-15
-4.03772e-15
-1.13324e-15
-8.2708e-16
-3.55484e-17
-2.37108e-16
-1.93464e-18
-3.17816e-17
-1.6613e-18
-8.78021e-20
1.15275e-06
3.05217e-05
2.3974e-08
1.814e-06
1.16012e-09
5.95345e-08
1.24167e-12
1.9146e-09
0
2.08367e-09
-1.79452e-09
6.61711e-08
3.92919e-10
1.39653e-07
5.44023e-09
8.76123e-08
1.00042e-08
2.07218e-08
7.90653e-09
-4.5582e-08
6.87216e-11
-4.41466e-09
-9.90517e-12
-1.21015e-10
-5.17942e-13
-1.43004e-11
-5.52004e-12
-1.46589e-12
-6.64228e-14
-2.35104e-12
-3.62796e-14
-3.3246e-13
-3.95145e-14
-4.16687e-14
-5.60645e-15
-5.29319e-14
-3.6927e-16
-1.22119e-15
-8.91059e-17
-1.32625e-16
-1.31252e-17
-1.76242e-17
-7.37771e-19
-1.36523e-18
-1.95201e-19
-1.61737e-20
5.09001e-08
1.7965e-07
0
1.2001e-06
1.43551e-09
5.64411e-08
1.40288e-10
3.07032e-09
2.54242e-10
1.93161e-09
1.03056e-08
1.45872e-07
1.42192e-08
1.36306e-07
1.73362e-08
8.46936e-08
1.98416e-08
1.83961e-08
2.29893e-09
-3.61235e-08
0
-2.2827e-09
-7.68432e-13
-1.2625e-10
-2.78609e-13
-1.52725e-11
-3.17455e-13
-1.8472e-12
-2.13792e-13
-2.62487e-12
-2.92943e-14
-5.6585e-13
-3.13911e-14
-2.77828e-14
-3.41886e-16
-1.09688e-15
-5.9062e-17
-1.86732e-16
-6.31891e-18
-2.58819e-17
-4.18682e-19
-2.92508e-18
-6.17148e-20
-2.37576e-19
-2.41553e-20
-1.21389e-21
1.32661e-07
1.25638e-05
3.139e-08
1.04016e-06
3.81532e-09
8.40216e-08
5.02955e-10
6.29928e-09
5.42997e-10
2.12624e-09
2.17953e-08
1.17581e-07
2.80658e-08
1.30091e-07
2.89207e-08
8.3991e-08
2.80819e-08
1.94332e-08
1.32736e-10
-2.18105e-08
0
-1.99122e-09
0
-1.92269e-10
-6.89491e-13
-1.36392e-11
-7.7698e-13
-3.00834e-12
-7.91368e-13
-4.86705e-12
-1.08072e-13
-3.22832e-12
-1.44833e-15
-5.0162e-14
-6.66759e-17
-1.77877e-16
-8.74897e-18
-6.0635e-17
-8.81748e-19
-1.03696e-17
-6.14733e-20
-9.62379e-19
-6.49841e-21
-4.3031e-20
-2.74803e-21
-6.77744e-23
8.7471e-07
1.49558e-05
8.77058e-08
1.93732e-06
1.1873e-08
1.55621e-07
1.85565e-09
1.67288e-08
1.32792e-09
2.85791e-09
2.56711e-08
2.72205e-08
3.97761e-08
9.74775e-08
2.98659e-08
6.09259e-08
2.95299e-08
2.00058e-08
0
-1.37875e-08
0
-2.02403e-09
0
-2.91953e-10
0
-3.84994e-11
-4.04585e-13
-6.49095e-12
-4.74301e-13
-4.67792e-12
-1.46261e-13
-3.24922e-12
-1.20042e-15
-7.39526e-14
-1.17922e-17
-1.0825e-16
-2.35495e-18
-3.27124e-17
-2.02243e-19
-4.66887e-18
-7.85642e-21
-2.31732e-19
-5.51072e-22
-4.02252e-21
-2.41137e-22
-1.10415e-23
2.47454e-06
1.36073e-05
1.32587e-07
5.65878e-06
2.15774e-08
2.19434e-07
4.01236e-09
3.5089e-08
1.38134e-09
5.8318e-09
1.05269e-08
1.88148e-08
2.37801e-08
2.30076e-08
2.44124e-08
1.80235e-08
1.02852e-08
9.60373e-09
7.40282e-11
-9.2239e-09
0
-3.33111e-09
0
-6.27479e-10
0
-8.5583e-11
0
-9.42642e-12
4.0909e-14
-1.12817e-12
-1.69772e-15
-2.24325e-13
-2.55462e-16
-3.54818e-15
-3.41745e-18
-3.15976e-16
-5.10436e-19
-3.58863e-17
-2.55454e-20
-2.4176e-18
-4.16091e-22
-5.80029e-20
-2.70033e-23
-1.64802e-22
-2.58018e-23
-4.55192e-24
1.34327e-06
3.6283e-06
2.55247e-07
8.58643e-06
4.07239e-08
4.38254e-07
6.23315e-09
5.823e-08
1.38595e-09
1.14085e-08
5.21055e-09
1.60941e-08
9.99244e-09
1.78755e-08
1.35491e-08
1.22634e-08
6.92913e-09
2.56304e-08
4.32166e-09
-5.27481e-09
0
-7.61278e-09
0
-1.0141e-09
0
-1.39191e-10
5.63407e-14
-1.49822e-11
8.86536e-14
-1.16443e-12
2.80613e-16
-1.38499e-13
6.17831e-17
-5.58915e-15
3.36452e-18
-4.83605e-16
4.39011e-20
-2.20833e-17
-9.9299e-22
-5.62379e-19
-9.36371e-24
-1.10816e-20
-9.21417e-25
-1.41252e-22
-1.39248e-23
-1.40678e-24
4.57875e-07
1.60357e-07
1.52156e-06
8.784e-06
6.65839e-08
1.61759e-06
1.12097e-08
9.92722e-08
3.12869e-09
2.07555e-08
3.99328e-09
1.58543e-08
5.51726e-09
1.62405e-08
7.6795e-09
1.01699e-08
3.9591e-08
5.02691e-08
1.51839e-08
-1.06408e-08
0
-6.99034e-09
0
-1.27754e-09
0
-1.88114e-10
0
-2.18461e-11
0
-1.93803e-12
4.0829e-16
-1.55315e-13
1.91713e-16
-9.20404e-15
8.14737e-18
-6.20296e-16
1.26673e-19
-2.63005e-17
1.46787e-21
-7.224e-19
1.14753e-23
-1.50295e-20
9.71152e-26
-2.49137e-22
-8.17134e-24
-1.44408e-25
4.66445e-08
3.58402e-08
1.7592e-06
7.83449e-06
3.1238e-07
8.09538e-06
5.02211e-08
3.82528e-07
7.31285e-09
6.60396e-08
3.90613e-09
1.81264e-08
4.62019e-09
1.60215e-08
5.01369e-09
9.67723e-09
6.87463e-08
2.01154e-07
1.78059e-08
-1.44088e-08
0
-7.85276e-09
0
-1.75538e-09
0
-2.6526e-10
0
-3.15565e-11
0
-3.03195e-12
6.48427e-16
-2.33503e-13
3.06651e-16
-1.48305e-14
1.67426e-17
-8.81644e-16
3.80618e-19
-3.89623e-17
5.81749e-21
-1.16974e-18
6.9922e-23
-2.64698e-20
7.88268e-25
-4.62014e-22
-7.73189e-24
4.95396e-26
2.58811e-09
2.28423e-09
1.63931e-06
6.54369e-06
1.24734e-06
9.46369e-06
4.85159e-07
4.70427e-06
6.08868e-08
5.11609e-07
1.13817e-08
6.92503e-08
1.08248e-07
8.55219e-07
4.09636e-07
1.61156e-06
2.08911e-07
4.64933e-07
0
-2.42565e-08
0
-1.32906e-08
0
-2.75238e-09
0
-3.97664e-10
0
-4.64114e-11
0
-4.45593e-12
6.63226e-16
-3.48096e-13
4.62291e-16
-2.20967e-14
2.99481e-17
-1.16644e-15
7.72524e-19
-5.15737e-17
1.35796e-20
-1.63211e-18
1.86691e-22
-3.97579e-20
1.98169e-24
-7.47775e-22
-1.07723e-23
8.08713e-26
-1.72614e-08
2.27878e-09
7.38536e-07
5.19521e-07
1.84044e-06
7.59056e-06
1.09497e-06
8.00999e-06
3.98918e-07
6.85518e-06
6.63065e-07
4.0707e-06
1.93777e-06
3.94977e-06
1.19518e-06
3.34695e-06
4.13266e-08
3.67298e-07
9.44933e-09
-2.04027e-08
1.65162e-09
-1.10549e-08
2.17128e-10
-2.20558e-09
2.26212e-11
-3.1854e-10
1.90683e-12
-3.76966e-11
1.30401e-13
-3.67026e-12
7.58972e-15
-2.90061e-13
4.74622e-16
-1.84841e-14
3.65851e-17
-9.67832e-16
1.10828e-18
-4.15015e-17
2.07319e-20
-1.34737e-18
3.0876e-22
-3.39996e-20
3.47254e-24
-6.60434e-22
-1.00264e-23
2.18755e-25
-6.74447e-10
1.09263e-09
2.03821e-07
5.78764e-09
1.4733e-06
3.46955e-06
2.0968e-06
7.31732e-06
1.96329e-06
7.3074e-06
1.73598e-06
6.17441e-06
1.88402e-06
4.51764e-06
1.06357e-06
1.70546e-06
5.88915e-08
1.19817e-07
1.43146e-08
-8.51256e-09
2.41458e-09
-5.13822e-09
3.17396e-10
-1.03613e-09
3.42045e-11
-1.54611e-10
3.03318e-12
-1.88083e-11
2.14804e-13
-1.85861e-12
1.32292e-14
-1.46517e-13
6.72745e-16
-9.31579e-15
3.1881e-17
-5.07225e-16
9.21e-19
-2.18118e-17
1.92625e-20
-7.42806e-19
3.13721e-22
-2.00552e-20
4.02922e-24
-4.2355e-22
-6.99124e-24
1.55638e-25
-9.22828e-10
5.10864e-10
-5.88319e-09
1.12519e-08
6.88398e-07
3.17483e-08
1.39828e-06
2.84453e-06
2.18094e-06
6.36068e-06
2.17003e-06
5.03967e-06
1.34628e-06
2.6192e-06
1.38061e-07
3.05805e-07
3.97678e-08
3.01966e-08
9.33659e-09
7.32137e-10
1.57527e-09
-9.10113e-10
2.11458e-10
-2.36783e-10
2.38162e-11
-3.98115e-11
2.24865e-12
-5.14462e-12
1.77137e-13
-5.1919e-13
1.10425e-14
-3.96085e-14
5.55482e-16
-2.47231e-15
2.0448e-17
-1.33034e-16
6.59642e-19
-5.05494e-18
1.79386e-20
-1.74682e-19
3.7025e-22
-5.11581e-21
6.15036e-24
-1.12945e-22
-1.82852e-24
1.30754e-25
-4.34754e-10
2.86217e-10
0
7.03231e-09
-4.48655e-09
3.03702e-09
5.12711e-07
1.87771e-07
1.32198e-06
8.69324e-07
1.11276e-06
9.36743e-07
3.49448e-07
1.24305e-07
2.87046e-08
9.21754e-09
1.08326e-08
7.28959e-09
2.75755e-09
7.51962e-10
4.78284e-10
2.74083e-11
6.55731e-11
-2.17056e-11
7.45358e-12
-5.86155e-12
6.96415e-13
-8.47894e-13
5.143e-14
-8.08868e-14
3.08636e-15
-5.2479e-15
1.64244e-16
-3.25483e-16
6.56834e-18
-1.75435e-17
2.27184e-19
-7.16616e-19
6.31833e-21
-2.44377e-20
1.35555e-22
-6.58646e-22
2.2157e-24
-1.36193e-23
-1.94984e-25
1.98683e-26
-3.22776e-12
1.0918e-10
0
2.05108e-09
-1.43077e-08
3.43775e-09
2.12954e-08
4.303e-08
1.45604e-07
1.06455e-07
2.28865e-07
9.67852e-08
8.9409e-08
9.58908e-09
1.22034e-08
1.44986e-09
1.98048e-09
1.13673e-09
3.71115e-10
1.88517e-10
7.07304e-11
1.39037e-11
1.11045e-11
4.73539e-13
1.29087e-12
-3.44066e-13
1.1335e-13
-7.99343e-14
7.1719e-15
-6.72771e-15
4.23602e-16
-4.45945e-16
2.14394e-17
-2.70285e-17
8.76721e-19
-1.34205e-18
2.86675e-20
-5.23856e-20
7.41687e-22
-1.60944e-21
1.49713e-23
-3.87209e-23
2.19853e-25
-7.22838e-25
-9.09948e-27
0
0