/*--------------------------------*- C++ -*----------------------------------*\
  =========                 |
  \\      /  F ield         | OpenFOAM: The Open Source CFD Toolbox
   \\    /   O peration     | Website:  https://openfoam.org
    \\  /    A nd           | Version:  13
     \\/     M anipulation  |
\*---------------------------------------------------------------------------*/
FoamFile
{
    format      ascii;
    class       volScalarField;
    location    "1";
    object      alpha.water;
}
// * * * * * * * * * * * * * * * * * * * * * * * * * * * * * * * * * * * * * //

dimensions      [];

internalField   nonuniform List<scalar> 
2268
(
1
1
1
1
1
1
1
1
1
1
1
1
1
0.996925
0.980212
0.981731
0.990087
0.988963
0.973079
0.984779
0.998452
0.999998
0.999974
1
1
1
1
1
1
1
1
1
1
1
1
0.999895
0.974894
0.956491
0.957404
0.976023
0.973716
0.971647
0.971579
0.98812
0.999998
0.999974
1
1
1
1
1
1
1
1
1
1
1
0.999999
0.999973
0.988684
0.956535
0.956491
0.956535
0.960436
0.992156
0.997794
1
0.999998
0.999985
1
1
1
1
1
1
1
1
1
1
1
1
0.999996
0.999858
0.988114
0.968378
0.974946
0.99798
1
1
1
1
0.999999
1
1
1
0.999998
0.999994
0.999999
1
1
1
1
1
1
1
0.999996
0.999955
0.999166
0.999803
1
1
1
0.999999
0.999999
0.999999
1
1
1
1
0.999993
0.999787
0.999418
0.999957
1
1
1
1
1
1
0.999999
0.999996
0.999999
0.999999
0.999999
0.999992
0.999983
0.999982
0.999989
1
1
1
1
1
0.999216
0.99871
0.999693
1
1
1
1
1
0.999998
0.999998
0.999999
1
0.999999
0.999999
0.999955
0.99979
0.99979
0.999613
1
1
1
1
1
0.999076
0.99871
0.999428
1
1
1
1
1
1
1
1
1
1
0.999998
0.999805
0.998153
0.989554
0.979295
0.9856
0.988849
0.98588
0.921528
0.960229
0.991715
0.992462
0.992453
0.918353
0.709927
0.709927
0.710179
0.786051
0.794863
0.724415
0.724415
0.763097
0.845457
0.839055
0.988976
0.987231
0.824925
0.772413
0.857351
0.991583
0.992453
0.992459
0.797688
0.714233
0.822138
0.823784
0.82447
0.825858
0.77391
0.724488
0.843365
0.844711
0.644495
0.988976
0.932401
0.751475
0.817746
0.942517
0.9921
0.992265
0.943197
0.789054
0.828187
0.821083
0.794034
0.790654
0.829552
0.829359
0.731861
0.842669
0.786192
0.64442
0.987274
0.835907
0.750957
0.991537
0.992027
0.992069
0.990318
0.902169
0.884684
0.862834
0.587489
0.279657
0.269999
0.740869
0.837074
0.840457
0.842469
0.660918
0.660396
0.985676
0.842332
0.761881
0.991614
0.991821
0.992027
0.991813
0.943264
0.834782
0.392175
0.0326688
0.00373285
0.00784937
0.222712
0.819665
0.837074
0.676467
0.657572
0.660866
0.980667
0.825397
0.911858
0.988319
0.989596
0.991815
0.990534
0.859143
0.314641
0.007975
0.00209299
0.00142724
0.00243284
0.00623489
0.28401
0.776754
0.729203
0.559989
0.58539
0.985265
0.825397
0.925088
0.988066
0.988247
0.990546
0.899065
0.382192
0.00914553
0.00230822
0.000991789
0.000713332
0.000877094
0.00148742
0.00324298
0.178496
0.27076
0.0774104
0.0607313
0.987558
0.825571
0.899282
0.987008
0.902626
0.786934
0.374946
0.00807967
0.00182873
0.00110239
0.000667532
0.000623738
0.00064713
0.000778779
0.00118378
0.00220732
0.00393917
0.00976128
0.029203
0.938403
0.989278
1
0.999724
0.998146
0.999396
0.999986
0.999988
0.999995
0.998932
0.977402
0.995303
1
0.946663
0.869388
0.790265
0.705001
0.718038
0.853002
0.977822
0.911299
0.880651
0.957634
0.527608
0.613363
0.876591
0.974486
0.987518
0.999662
0.999977
0.98251
0.978594
0.998854
0.951569
0.518827
0.16298
0.149954
0.174905
0.178951
0.196653
0.514037
0.839098
0.751633
0.682019
0.824753
0.978984
0.526541
0.529213
0.551783
0.877154
0.999097
0.999292
0.999838
0.985072
0.607665
0.228988
0.139595
0.138324
0.138324
0.138542
0.141259
0.272234
0.420887
0.43996
0.411802
0.423748
0.801828
0.968754
0.976112
0.612063
0.711133
0.727822
0.786588
0.880118
0.999097
0.861893
0.375877
0.158463
0.217504
0.288843
0.288843
0.288065
0.308374
0.308875
0.308411
0.29811
0.0949407
0.064194
0.555098
0.948792
0.962355
0.864847
0.534269
0.148444
0.0390033
0.158131
0.441646
0.539826
0.182802
0.010333
0.00796749
0.137034
0.260344
0.257159
0.125892
0.0891049
0.0943093
0.0952651
0.0583404
0.0204657
0.0111748
0.151726
0.683944
0.948792
0.405901
0.459752
0.0203846
0.0336538
0.134771
0.052333
0.0256593
0.00737645
0.00325619
0.00168273
0.000795775
1.53079e-07
1.09583e-05
0.0103141
0.0515355
0.0551163
0.0209503
0.0155284
0.00741409
0.00395843
0.00835649
0.227154
0.849751
0.346281
0.487104
0.00885132
0.0381601
0.106449
0.0262917
0.00731728
0.00302436
0.00126873
0.000366937
0.000154025
8.84702e-08
1.54358e-07
3.70803e-07
1.20894e-06
4.97366e-06
1.958e-05
0.000399048
0.00166784
0.00145029
0.00295323
0.0358302
0.435067
0.600836
0.502431
0.00745458
0.0076302
0.0247309
0.0343326
0.045195
0.0363503
0.0299209
0.0154015
0.00352159
6.13957e-08
8.81141e-08
1.58506e-07
4.28712e-07
1.56597e-06
6.34677e-06
5.82995e-05
9.84161e-05
0.000138921
0.000314201
0.00189916
0.155195
0.614299
0.502435
0.0020955
0.000393166
0.00165988
0.0276107
0.0452644
0.0453452
0.0449703
0.0440861
0.00158674
3.58508e-08
4.8693e-08
2.05406e-07
8.82698e-07
2.59744e-05
8.37165e-05
0.000122308
0.000158661
0.00011596
2.29562e-05
6.0743e-05
0.00087378
0.212033
0.49623
0.000246934
0.000118709
0.000258245
0.00272406
0.0167123
0.0353519
0.0440861
0.0238105
3.11458e-05
2.22419e-08
1.96687e-08
2.24443e-08
6.14071e-08
3.86523e-05
0.000141551
0.000153674
0.000158938
0.000121904
1.32079e-05
1.69186e-05
1.62102e-05
0.000134329
0.489263
9.37576e-05
4.60572e-05
0.000108757
0.000899286
0.00167756
0.0032985
0.00535473
0.000496487
3.84256e-06
1.95905e-08
1.82307e-08
1.87917e-08
1.79564e-08
2.45107e-08
9.05465e-09
4.52527e-05
0.000113976
5.92915e-05
2.998e-06
2.18892e-08
3.10913e-07
1.17123e-07
0.478541
3.54602e-05
1.62519e-05
7.76393e-05
0.000212561
0.000288487
0.000365059
0.000109911
6.74692e-05
1.656e-06
1.81484e-08
1.81484e-08
1.71958e-08
1.29851e-08
6.82472e-09
4.59451e-09
3.57761e-09
2.20891e-09
1.90287e-09
1.07616e-06
3.821e-09
6.40595e-09
2.13674e-08
0.46611
1.384e-05
6.31522e-06
1.37735e-05
1.73101e-05
4.42043e-05
5.37788e-05
1.82657e-05
1.08417e-05
3.19791e-07
1.85454e-08
1.81813e-08
2.2102e-08
1.76188e-08
1.22345e-08
7.66278e-09
2.39381e-09
1.91306e-09
1.90811e-09
1.90811e-09
2.0117e-09
1.79549e-07
3.30979e-07
0.462777
5.86649e-06
2.95625e-06
2.80483e-06
3.65709e-06
4.95959e-06
5.24161e-06
3.43662e-06
1.2284e-06
8.80091e-08
2.56025e-08
1.58281e-07
1.65054e-07
8.54232e-08
8.79798e-08
5.40443e-08
8.91236e-09
2.40311e-09
1.91781e-09
2.00922e-09
4.30178e-09
2.78206e-08
1.83674e-07
0.466394
2.9231e-06
1.72695e-06
1.04489e-06
1.18176e-06
1.52951e-06
2.1483e-06
1.65765e-06
4.54774e-07
2.25553e-07
3.82291e-07
1.9247e-06
9.25121e-07
8.8465e-07
9.40198e-07
4.79798e-07
7.04241e-08
7.28548e-09
1.58919e-09
2.29063e-09
5.52748e-09
8.4632e-10
1.27474e-09
0.475241
1.36121e-05
1.02753e-06
6.14818e-07
7.49818e-07
9.84479e-07
1.50491e-06
2.07333e-06
1.44162e-06
4.26597e-07
1.97155e-05
8.18001e-05
9.11988e-05
3.82564e-05
2.86212e-05
3.85203e-06
3.45264e-07
5.62721e-08
2.65792e-09
5.68786e-10
9.58636e-10
8.06911e-10
1.46411e-09
0.474326
0.00132095
6.10578e-07
4.85012e-07
5.97776e-07
7.62661e-07
1.11207e-06
1.78655e-06
2.73707e-06
5.17795e-05
0.000320224
0.000347131
0.000362211
0.000388424
0.000389655
0.000214204
1.03303e-05
1.58536e-07
3.21616e-09
4.5539e-10
2.01984e-11
1.27032e-10
8.42936e-10
0.280803
0.00278656
4.8404e-07
4.58202e-07
4.87059e-07
6.6528e-07
1.36666e-06
5.35073e-06
0.000163031
0.000293066
0.000311438
0.000230317
0.000297179
0.000463452
0.000475751
0.000477342
0.00031299
4.91447e-06
1.28932e-06
3.29257e-09
1.58637e-11
1.50643e-11
1.39757e-11
0.00386678
0.000962812
4.54668e-07
4.48849e-07
4.7143e-07
1.52909e-06
3.07743e-06
0.000121421
0.0002499
0.000251284
1.24609e-05
7.96856e-06
9.43697e-06
4.27153e-05
0.000423412
0.00048027
0.000479813
0.000183795
7.29371e-06
7.5366e-08
6.60937e-12
7.1896e-12
1.40023e-11
0.0438492
8.62526e-07
4.06232e-07
4.25868e-07
4.53778e-07
9.69109e-07
3.99165e-05
0.000217033
0.000229592
1.04156e-05
7.84345e-06
7.23101e-06
7.80659e-06
9.84491e-06
0.000198092
0.000479813
0.00048027
0.000431807
1.66842e-05
8.7696e-08
1.5659e-10
3.73524e-12
2.36803e-12
0.250823
4.05866e-07
3.63543e-07
3.86302e-07
5.65825e-07
1.1413e-06
2.72403e-05
0.000105756
5.95171e-05
1.48876e-05
1.13325e-05
5.25735e-06
6.3056e-06
0.000107082
0.000404397
0.000478107
0.000479813
0.00046066
1.67573e-05
4.59654e-11
4.26539e-10
2.68101e-11
1.05563e-12
0.290639
3.63677e-07
3.63677e-07
3.62039e-07
4.26349e-07
4.32181e-06
5.927e-06
1.27882e-05
3.16497e-05
4.29538e-05
7.84966e-05
4.89843e-06
1.76421e-05
0.000446433
0.000463643
0.000472541
0.00047809
0.000165145
4.58086e-11
1.33463e-11
1.24075e-11
5.00151e-12
5.20952e-13
0.291817
7.50002e-05
4.80229e-07
3.86304e-07
4.2113e-07
7.57756e-06
6.46015e-05
0.000178846
5.47966e-05
0.000277365
8.97616e-05
1.64009e-06
4.51958e-05
0.000431507
0.000454511
0.000441303
0.000230767
3.29528e-10
4.30642e-10
5.42491e-10
1.94588e-11
5.85257e-13
5.94098e-14
0.291653
0.00108322
1.86477e-06
4.18699e-07
6.62702e-07
8.78684e-06
0.000256142
0.000285229
0.000286182
0.000285492
5.2646e-05
8.70725e-07
1.93088e-05
0.000120498
0.000226901
4.35325e-05
2.90994e-10
2.98308e-10
1.06546e-09
1.34331e-10
1.31016e-11
5.26056e-13
2.92494e-14
0.28151
0.00311226
4.08137e-06
6.4492e-07
2.52445e-06
1.58796e-05
0.000285229
0.000289687
0.000290853
0.000289678
1.62986e-05
2.90526e-07
4.98058e-09
2.10819e-09
4.07413e-10
2.90994e-10
2.78633e-10
3.7511e-10
4.11072e-11
4.01465e-12
1.31837e-12
2.10432e-13
1.11497e-14
0.0732355
0.00254098
7.18521e-06
1.62924e-06
2.56949e-06
0.000181673
0.000289518
0.000290853
0.000290917
0.000206
3.89716e-06
3.7362e-08
3.64226e-09
2.68459e-09
1.06299e-09
3.42955e-10
2.6852e-10
4.26645e-10
5.68579e-12
7.13393e-13
9.44729e-14
7.52419e-15
1.10469e-15
0.0260999
0.00192616
9.40943e-06
2.83935e-06
2.72594e-06
0.000282889
0.00029035
0.000290931
0.000290853
0.000145733
1.15233e-06
1.54596e-07
1.0577e-08
4.38594e-09
1.52242e-08
1.03871e-08
1.13994e-10
6.68952e-12
9.34869e-13
1.46917e-13
1.67847e-14
1.33446e-15
1.33802e-16
0.082368
0.00275473
4.76074e-05
4.07446e-06
2.90205e-06
0.000163257
0.000285833
0.00029035
0.000290792
0.000125602
1.95313e-06
4.51494e-07
6.22158e-08
2.32875e-08
2.66132e-08
2.10866e-08
2.98584e-10
3.94758e-13
3.62989e-13
6.1691e-14
5.43928e-15
2.26009e-16
1.4728e-17
0.0847494
0.00636586
8.30314e-05
6.9048e-06
3.59191e-06
5.57083e-06
0.000116127
7.83095e-05
0.000287208
0.000116249
4.55656e-06
9.08554e-07
1.77644e-07
2.92078e-08
1.68001e-08
8.3316e-09
4.47978e-10
7.24697e-13
2.47063e-13
2.83248e-14
1.2562e-15
1.9848e-17
1.30606e-18
0.0797047
0.023313
5.38709e-05
2.45891e-05
5.61255e-06
1.00743e-05
1.99883e-05
2.78605e-05
0.000235252
0.000156537
2.06951e-05
1.81121e-06
2.77542e-07
2.98396e-08
1.78987e-10
1.87033e-11
1.29388e-11
2.7249e-12
2.63647e-13
1.37601e-14
3.19918e-16
1.41808e-18
1.89287e-19
0.00652566
0.0238371
0.000753824
3.70457e-05
1.00146e-05
1.73589e-05
2.17629e-05
2.40827e-05
0.000163274
0.000246437
3.98376e-05
2.40234e-06
3.48027e-07
4.10482e-08
2.31971e-09
9.92369e-11
2.70184e-11
3.1005e-12
1.25656e-13
3.26239e-15
7.26111e-17
1.17761e-18
1.14371e-19
0.000410851
0.0238914
0.00415095
4.36738e-05
1.80405e-05
2.31646e-05
2.34591e-05
2.57071e-05
0.000322588
0.000334277
3.62862e-05
3.11298e-06
4.24551e-07
4.83725e-08
4.33647e-09
2.66795e-10
2.5029e-11
2.8426e-12
1.47125e-13
4.12432e-15
9.47315e-17
1.90455e-18
5.97307e-20
0.000116417
0.0238721
0.0222123
0.00127969
4.33484e-05
2.34605e-05
2.57843e-05
0.000767043
0.00187749
0.000328917
2.36858e-05
3.81153e-06
4.79945e-07
5.0644e-08
4.47094e-09
3.04699e-10
2.10086e-11
2.44749e-12
1.4336e-13
4.10813e-15
9.33354e-17
1.81081e-18
3.51587e-20
7.12923e-05
0.0135335
0.0214887
0.0160725
0.00309383
0.000450204
0.0055599
0.00917872
0.00341795
0.000132241
2.45007e-05
3.76157e-06
4.76256e-07
4.90163e-08
4.07982e-09
2.73351e-10
1.58015e-11
1.04105e-12
7.66362e-14
2.3274e-15
4.6393e-17
7.72016e-19
1.32437e-20
1.98746e-05
0.000383271
0.0179869
0.0177308
0.0160324
0.0127514
0.01183
0.0108131
0.00217553
0.0001019
1.79936e-05
2.72356e-06
3.42409e-07
3.53779e-08
3.00238e-09
2.14917e-10
1.27496e-11
5.3169e-13
2.40433e-14
6.58605e-16
1.32099e-17
2.21905e-19
5.41204e-21
7.09915e-06
2.84014e-05
0.00544142
0.01458
0.0150213
0.0139367
0.0130716
0.00577938
0.00035536
5.04677e-05
8.61163e-06
1.33123e-06
1.69068e-07
1.80835e-08
1.63398e-09
1.21653e-10
7.48257e-12
3.61316e-13
9.30055e-15
2.90927e-16
9.35814e-18
2.12278e-19
4.65398e-21
2.4608e-06
2.67917e-05
0.000146373
0.00371036
0.00912548
0.0107675
0.00626491
0.0009922
9.34284e-05
1.68506e-05
2.63632e-06
3.78808e-07
4.56359e-08
4.59809e-09
3.82122e-10
2.54803e-11
1.42714e-12
7.66526e-14
3.68168e-15
1.26354e-16
3.11418e-18
6.23616e-20
1.02653e-21
7.51792e-07
1.61959e-05
4.86882e-05
0.000310344
0.00104107
0.00117041
0.000460445
0.000153876
3.06254e-05
4.19591e-06
5.88698e-07
6.81183e-08
7.56177e-09
7.09797e-10
5.43106e-11
3.28986e-12
1.74488e-13
7.33635e-15
2.89208e-16
8.01311e-18
1.70518e-19
2.97682e-21
6.39724e-23
2.4412e-07
3.86082e-06
1.45897e-05
7.62845e-05
0.000134643
0.000130436
8.11755e-05
2.74004e-05
5.98147e-06
8.65964e-07
1.09445e-07
1.14336e-08
9.66319e-10
8.01825e-11
5.28167e-12
2.8809e-13
1.3474e-14
5.06569e-16
1.52404e-17
3.68139e-19
7.00335e-21
1.04105e-22
2.10891e-24
3.36747e-08
3.50546e-07
2.77959e-06
1.6046e-05
2.98454e-05
2.68733e-05
1.56231e-05
5.01427e-06
1.08024e-06
1.51475e-07
1.74872e-08
1.56964e-09
1.16891e-10
7.6164e-12
4.6577e-13
1.95129e-14
6.85011e-16
2.16439e-17
5.43855e-19
1.06536e-20
1.64339e-22
1.99858e-24
5.29926e-26
1.29363e-08
2.76303e-08
5.02879e-07
3.10375e-06
7.86165e-06
6.80833e-06
2.80134e-06
8.26327e-07
1.67374e-07
2.33011e-08
2.39252e-09
1.92104e-10
1.32264e-11
1.32766e-12
5.22986e-14
7.61112e-16
1.08536e-17
2.57909e-19
5.11877e-21
8.11077e-23
9.88075e-25
9.18607e-27
2.69016e-26
1.29363e-08
1.29965e-08
8.24308e-08
6.39207e-07
3.05041e-06
2.71091e-06
7.51753e-07
1.51697e-07
2.28178e-08
2.55859e-09
2.24549e-10
1.60127e-11
1.52238e-12
6.65704e-14
8.02139e-16
2.6647e-18
7.56267e-20
9.89577e-22
8.84878e-24
5.54552e-26
2.43892e-28
5.39945e-29
5.87555e-28
0.982291
0.982291
0.982291
0.982237
0.982132
0.973887
0.928292
0.80487
0.923939
0.602698
0.445337
0.527579
0.325233
0.0850037
0.044235
0.163729
0.00173091
0.00164999
0.00161535
0.00153589
0.00201211
0.00171769
0.00153611
0.00128992
0.262291
0.00210994
0.00172859
0.00167673
0.614299
0.604298
0.121379
0.0677234
0.614299
0.605084
0.595869
0.595869
0.00190935
0.221518
0.50808
0.560199
4.74533e-07
7.20278e-06
5.34364e-05
0.000435038
5.8923e-08
7.86507e-08
1.8016e-07
3.47228e-06
6.5652e-08
4.35462e-08
3.39062e-08
6.44734e-08
1.60573e-07
4.38678e-08
2.87347e-08
2.48437e-09
7.05402e-09
1.03457e-07
3.25049e-08
4.18216e-10
3.72646e-09
2.07097e-08
9.7068e-09
2.65705e-10
4.03113e-11
3.91232e-11
3.83452e-11
3.95739e-11
4.71963e-11
4.25336e-11
3.81553e-11
3.8255e-11
2.74043e-11
2.79249e-11
2.88667e-11
1.65284e-11
9.77278e-13
1.98299e-12
3.42292e-12
7.90513e-13
5.09062e-14
3.18385e-14
2.73197e-14
4.50972e-14
2.22324e-14
1.27956e-14
8.61805e-15
7.93002e-15
8.14792e-15
5.48285e-15
1.97528e-15
1.69956e-15
2.55614e-15
1.95693e-15
4.88263e-16
3.47048e-16
5.19217e-16
4.3614e-16
1.27627e-16
9.20764e-17
4.99384e-17
6.105e-17
3.8541e-17
4.29157e-17
3.23916e-18
1.02324e-17
1.66188e-17
2.64417e-17
6.74733e-19
3.28804e-18
8.29075e-18
1.53531e-17
4.14088e-19
1.40838e-18
3.8623e-18
6.99564e-18
2.89177e-19
5.83198e-19
1.50226e-18
2.61597e-18
1.26432e-19
2.10589e-19
4.8682e-19
8.72831e-19
3.05211e-20
5.68703e-20
1.39163e-19
2.62886e-19
8.42904e-21
1.58364e-20
3.82059e-20
7.15655e-20
4.38364e-21
4.75064e-21
1.05974e-20
1.96221e-20
1.33116e-21
1.44634e-21
3.1582e-21
5.70895e-21
3.57663e-22
4.66614e-22
9.90956e-22
1.79603e-21
5.54983e-23
1.46913e-22
2.96407e-22
6.57608e-22
1.49546e-23
3.86568e-23
8.39016e-23
3.475e-22
4.03676e-24
7.78993e-24
2.82642e-23
2.41198e-22
6.10776e-25
1.38478e-24
1.17184e-23
1.38733e-22
6.02498e-26
2.44188e-25
3.67211e-24
3.92655e-23
1.21895e-27
1.51154e-26
2.35777e-25
2.06412e-24
0.987558
0.936678
0.969238
0.986558
0.872917
0.413278
0.0391999
0.0065146
0.00085959
0.000642284
0.000618773
0.000616695
0.000622894
0.000645653
0.000761183
0.00117572
0.00276244
0.0543446
0.162464
0.873462
0.94724
0.947302
0.982582
0.98137
0.631818
0.0615379
0.0208868
0.000640937
0.000592279
0.000608071
0.00061679
0.000616695
0.000635627
0.00071684
0.00102119
0.00208923
0.154719
0.192253
0.726982
0.781655
0.881618
0.980643
0.978805
0.630118
0.13256
0.03324
0.00059143
0.000577267
0.000598653
0.000804821
0.000752503
0.000716624
0.00102076
0.00209117
0.0177658
0.194315
0.192837
0.458671
0.697504
0.727408
0.670551
0.703347
0.289238
0.13267
0.0255105
0.000577289
0.000572077
0.000576067
0.000789679
0.002224
0.00143092
0.00952916
0.0654765
0.169614
0.196326
0.194335
0.00129002
0.00106134
0.0196238
0.0564201
0.0837325
0.0425636
0.0395901
0.00561516
0.000573032
0.000570019
0.000570963
0.000581786
0.00127501
0.0530304
0.153064
0.197999
0.197404
0.197404
0.15834
0.00106118
0.00100921
0.00092395
0.000794319
0.00141849
0.00147695
0.00115266
0.000592858
0.000570032
0.000569502
0.000570019
0.00058683
0.0914003
0.198419
0.198419
0.198593
0.197999
0.18788
0.0817891
0.00131226
0.000966985
0.000795467
0.000750542
0.000747699
0.000674579
0.000649558
0.000578082
0.000569502
0.000569423
0.000569502
0.0565074
0.193938
0.196266
0.198508
0.197863
0.122482
0.00381419
0.0685225
0.041059
0.00136903
0.000883042
0.000716922
0.000672037
0.000637604
0.000587384
0.000570507
0.00056942
0.000569424
0.000569425
0.174156
0.190798
0.193938
0.132706
0.035782
4.63551e-06
0.000152984
0.028237
0.453532
0.123613
0.0339661
0.000884799
0.00151946
0.000957707
0.000582742
0.000569704
0.000569429
0.000569423
0.0499659
0.174926
0.181744
0.0376979
8.7016e-07
7.05928e-07
8.56138e-07
0.00011042
0.000131338
0.559569
0.550573
0.437604
0.0482007
0.00155168
0.00297805
0.00157789
0.000582781
0.000571058
0.000569785
0.0597692
0.16488
0.0126997
5.45736e-05
7.06364e-07
6.67535e-07
9.77106e-07
8.84575e-06
1.21238e-05
0.229635
0.536622
0.549073
0.519313
0.00990673
0.0036395
0.00372735
0.00238447
0.000605478
0.0120773
0.11581
0.0602068
0.000737591
1.19998e-05
6.69676e-07
6.72618e-07
6.72618e-07
1.05609e-06
4.33167e-06
6.18905e-05
0.0322825
0.466785
0.563289
0.415348
0.00275894
0.00252988
0.000902891
0.000699873
0.0937055
0.117999
0.0410052
0.000157166
4.39248e-06
1.03438e-06
6.68961e-07
1.05877e-06
2.808e-05
0.000153109
1.5149e-06
6.08584e-05
0.00332452
0.465996
0.575515
0.283043
0.00127072
0.00109238
0.0168817
0.231601
0.11753
0.00128904
4.93289e-05
1.03105e-06
8.38021e-07
1.46171e-05
1.57999e-05
0.000100395
0.000286932
1.73255e-08
9.7748e-07
4.49333e-05
0.00920175
0.437041
0.497366
0.135697
0.116395
0.348419
0.238612
0.0141825
8.08548e-05
1.68858e-06
1.89039e-08
7.40294e-10
6.17091e-05
0.000137416
0.000138765
0.000287566
2.3845e-10
1.03874e-07
2.40003e-07
2.50995e-05
0.00769659
0.364304
0.404766
0.404766
0.36618
0.0470735
1.83006e-06
2.08997e-06
2.59254e-08
8.75597e-10
4.74787e-10
6.1836e-05
0.000155048
0.000139378
0.000285422
4.36623e-11
1.8506e-10
9.92282e-08
1.34744e-08
2.80679e-06
1.78112e-08
0.119934
0.0918282
4.10666e-10
4.17121e-10
5.20019e-10
3.21803e-08
4.27323e-10
6.34759e-09
4.35059e-10
1.26833e-05
0.000150443
0.000180885
9.59827e-05
4.04771e-11
4.20854e-11
5.04968e-11
1.78633e-10
2.7821e-10
3.72183e-10
3.99967e-10
3.93795e-10
4.02772e-10
4.10002e-10
4.1933e-10
4.23977e-10
4.23054e-10
4.29561e-10
4.33305e-10
4.35059e-10
7.98432e-05
0.000415022
3.58565e-05
5.65254e-11
1.42585e-10
3.72086e-10
1.38463e-09
2.80208e-09
2.75854e-09
3.95452e-10
3.87729e-10
4.06139e-10
4.1543e-10
4.22044e-10
4.24911e-10
4.27252e-10
4.33931e-10
4.35059e-10
4.35456e-10
3.0807e-05
0.000415104
3.57199e-05
1.79796e-11
8.61395e-11
1.75127e-10
1.57927e-10
8.8116e-11
1.38057e-10
2.16263e-10
3.86384e-10
4.11779e-10
4.20889e-10
4.43435e-10
5.93672e-10
5.17347e-09
1.80845e-09
6.31742e-10
4.36597e-10
8.33349e-06
0.000415104
3.64964e-05
1.7217e-12
2.63351e-12
8.46668e-12
3.86816e-11
8.73978e-11
9.42075e-11
1.33213e-10
1.50165e-10
1.71418e-10
5.16782e-10
6.83313e-09
1.51996e-07
4.0574e-07
2.71651e-07
2.22416e-08
4.58641e-10
5.99157e-10
0.000381449
2.15352e-05
9.26255e-14
2.33122e-13
6.53779e-13
4.33949e-12
3.56305e-11
9.61211e-11
1.3007e-10
1.43422e-10
4.70259e-10
5.45829e-08
3.60383e-07
6.3662e-07
6.36788e-07
6.3662e-07
2.65315e-07
8.74856e-10
7.08989e-10
1.99875e-05
5.08627e-06
1.36318e-14
5.39158e-14
4.32724e-13
5.21355e-12
3.75287e-11
9.83542e-11
1.61243e-10
1.9348e-09
6.19607e-08
4.89933e-07
6.23316e-07
6.33347e-07
6.3662e-07
6.36814e-07
4.2959e-07
1.06087e-08
4.23105e-07
4.42224e-07
6.00077e-07
3.2153e-15
2.16723e-14
3.14981e-13
6.08311e-12
4.83627e-11
1.03858e-10
2.39112e-10
2.50699e-08
4.513e-07
5.91288e-07
6.00897e-07
3.94016e-07
5.13801e-07
6.30386e-07
1.84635e-07
8.77621e-09
3.49609e-06
8.96894e-07
1.18128e-06
9.55594e-16
1.56939e-14
3.04265e-13
6.57599e-12
5.13572e-11
9.69255e-11
1.34057e-10
6.60674e-08
5.6323e-07
3.19184e-07
1.35504e-07
1.23254e-07
1.15765e-07
1.10985e-07
2.94157e-08
8.77885e-09
9.36651e-06
2.15855e-05
3.49461e-06
5.07832e-16
1.55515e-14
3.5292e-13
6.80308e-12
5.2149e-11
9.37765e-11
1.19599e-10
6.83778e-08
5.78926e-07
1.62623e-07
1.40096e-07
1.29565e-07
1.23254e-07
1.17907e-07
1.80274e-07
5.72471e-07
2.54044e-05
2.96623e-05
3.74929e-06
3.58039e-16
1.78472e-14
4.01766e-13
6.28175e-12
5.14526e-11
9.57582e-11
1.21955e-10
2.22718e-08
5.84966e-07
9.23861e-07
1.61694e-07
1.4225e-07
1.4472e-07
1.67883e-07
3.48184e-07
8.35056e-06
3.83638e-05
2.45226e-05
3.7135e-07
2.77833e-16
2.01025e-14
4.13855e-13
4.90655e-12
4.52644e-11
1.01299e-10
1.05862e-10
1.8756e-10
4.03161e-07
5.21963e-06
2.29768e-06
2.33323e-07
2.19176e-06
5.96019e-06
2.30718e-06
5.19348e-06
2.68631e-05
1.1862e-09
2.67486e-11
2.08482e-16
2.05645e-14
3.98923e-13
3.02822e-12
2.82702e-11
9.77365e-11
1.18046e-10
1.3102e-10
1.14137e-09
5.1645e-06
1.76665e-05
1.15497e-05
2.39827e-05
3.07789e-05
2.86991e-05
2.39522e-05
1.18583e-09
2.90257e-11
1.2664e-11
1.51219e-16
1.88767e-14
3.26879e-13
1.60067e-12
1.32257e-11
6.69361e-11
1.35644e-10
1.45412e-10
1.83742e-10
5.7612e-07
1.80353e-05
3.06504e-05
3.07958e-05
3.09405e-05
3.05723e-05
1.56896e-05
1.18506e-07
1.26742e-11
6.31799e-12
1.01024e-16
1.32739e-14
1.78582e-13
7.37182e-13
6.08871e-12
3.09829e-11
1.20757e-10
1.95992e-10
1.84959e-10
9.94604e-12
2.88502e-07
1.62025e-05
2.48276e-05
1.63423e-05
4.96607e-06
1.58541e-09
8.44586e-09
5.19985e-10
5.11525e-12
5.1924e-17
6.07796e-15
6.35822e-14
3.08355e-13
3.07849e-12
1.1907e-11
7.86752e-11
2.07697e-10
1.85047e-10
5.64636e-12
6.06165e-12
2.95176e-12
1.90097e-13
6.8371e-14
5.9039e-14
1.12155e-09
8.34297e-09
8.37629e-10
3.21006e-12
1.72342e-17
1.84065e-15
2.05952e-14
1.59944e-13
1.77086e-12
4.68001e-12
4.51426e-11
1.92987e-10
1.91511e-10
1.39017e-10
5.166e-11
2.33681e-12
6.8371e-14
5.9039e-14
5.85197e-14
1.16697e-08
7.65028e-09
5.03259e-11
3.10422e-12
4.01316e-18
4.50867e-16
9.45192e-15
1.25454e-13
1.10948e-12
1.95704e-12
2.09889e-11
1.02242e-10
1.2737e-10
1.20363e-10
7.76952e-11
2.6276e-11
3.11443e-12
2.07891e-13
5.05936e-15
5.88964e-12
5.79883e-12
8.87296e-12
2.2354e-12
1.00318e-18
1.3539e-16
6.65362e-15
1.08239e-13
6.17378e-13
7.72869e-13
7.23404e-12
3.26276e-11
3.01959e-11
3.40572e-11
4.58889e-11
2.97952e-11
6.27674e-12
4.08303e-13
3.01426e-15
6.12814e-12
1.06137e-11
7.67036e-12
6.90627e-13
4.87766e-19
6.74626e-17
5.17336e-15
6.85434e-14
2.45808e-13
2.49485e-13
1.7339e-12
6.3169e-12
5.16411e-12
8.16248e-12
1.16267e-11
1.07513e-11
4.17846e-12
2.8148e-13
4.57518e-16
7.75815e-12
1.04702e-11
2.54626e-12
1.29026e-13
4.07686e-19
3.73819e-17
2.82336e-15
1.98044e-14
6.26742e-14
5.96819e-14
3.90956e-13
1.00282e-12
8.5632e-13
1.61251e-12
2.00061e-12
1.42909e-12
4.92071e-13
3.52712e-14
1.60062e-17
4.09021e-12
4.75673e-12
6.00144e-13
1.75757e-14
3.32502e-19
1.53582e-17
8.3239e-16
2.89188e-15
1.04242e-14
1.00212e-14
1.157e-13
2.02813e-13
1.52835e-13
2.19332e-13
2.10837e-13
1.19506e-13
2.541e-14
1.04229e-15
1.1622e-20
1.3203e-12
7.95411e-13
1.10181e-13
1.83213e-15
1.80401e-19
4.21151e-18
1.40661e-16
2.91694e-16
1.25758e-15
1.15357e-15
2.89913e-14
3.64429e-14
2.19085e-14
1.4931e-14
1.06461e-14
4.35536e-15
5.55971e-16
7.19947e-18
1.82633e-26
2.97633e-13
1.42814e-13
1.33251e-14
1.23626e-16
6.13955e-20
7.27399e-19
9.92399e-18
1.5501e-17
1.13957e-16
9.12265e-17
2.7077e-15
2.3441e-15
1.18465e-15
3.24522e-16
8.76491e-17
1.67004e-17
9.32732e-19
9.95432e-23
4.49215e-28
4.52232e-14
1.79437e-14
1.03672e-15
3.93413e-18
1.2981e-20
7.51069e-20
1.94394e-19
5.01587e-19
5.51477e-18
3.33525e-18
6.71848e-17
5.32116e-17
1.59181e-17
8.27176e-19
3.43583e-23
1.39037e-31
8.10414e-36
5.87516e-40
5.14053e-44
4.14839e-15
1.35273e-15
4.62608e-17
2.7786e-20
1.40031e-21
3.63834e-21
5.61763e-21
3.49087e-20
8.73291e-20
3.14667e-20
5.48508e-19
2.64604e-19
2.19432e-20
6.97163e-23
6.96788e-29
6.65316e-41
2.31512e-45
1.00631e-46
3.59805e-51
1.64374e-16
4.67445e-17
9.93219e-19
8.29315e-25
1.24254e-23
8.30357e-24
8.28314e-24
6.98126e-23
1.62242e-23
2.33755e-24
1.22923e-24
1.33703e-25
6.35649e-28
4.87443e-34
1.91293e-36
1.42151e-41
6.5292e-56
1.67683e-46
3.99813e-67
7.93232e-21
6.81331e-22
1.19531e-25
8.08842e-34
)
;

boundaryField
{
    leftWall
    {
        type            zeroGradient;
    }
    rightWall
    {
        type            zeroGradient;
    }
    lowerWall
    {
        type            zeroGradient;
    }
    atmosphere
    {
        type            inletOutlet;
        inletValue      uniform 0;
        value           nonuniform List<scalar> 
46
(
1.29363e-08
1.29965e-08
8.24308e-08
6.39207e-07
3.05041e-06
2.71091e-06
7.51753e-07
1.51697e-07
2.28178e-08
2.55859e-09
2.24549e-10
1.60127e-11
1.52238e-12
6.65704e-14
0
0
0
0
0
0
0
0
0
0
0
0
0
0
0
0
0
0
0
0
0
0
0
0
0
0
0
0
0
0
0
0
)
;
    }
    defaultFaces
    {
        type            empty;
    }
}


// ************************************************************************* //
