/*--------------------------------*- C++ -*----------------------------------*\
  =========                 |
  \\      /  F ield         | OpenFOAM: The Open Source CFD Toolbox
   \\    /   O peration     | Website:  https://openfoam.org
    \\  /    A nd           | Version:  13
     \\/     M anipulation  |
\*---------------------------------------------------------------------------*/
FoamFile
{
    format      ascii;
    class       volScalarField;
    location    "1";
    object      p;
}
// * * * * * * * * * * * * * * * * * * * * * * * * * * * * * * * * * * * * * //

dimensions      [1 -1 -2 0 0 0 0];

internalField   nonuniform List<scalar> 
2268
(
927.947
925.344
924.857
925.644
926.84
928.36
925.024
915.843
903.627
889.674
875.661
864.9
859.771
861.181
871.094
890.348
916.891
953.393
998.211
1043.21
1081.58
1104.28
1106.95
869.379
866.034
865.395
865.923
867.504
869.792
866.889
857.628
845.148
830.736
815.942
804.546
799.151
801.616
812.052
829.035
851.867
888.99
938.725
985.329
1022.44
1043.98
1046.53
811.395
808.52
806.099
805.127
807.079
811.211
809.538
800.154
786.995
771.442
755.225
742.385
736.077
739.582
750.484
764.861
788.531
830.688
882.69
929.542
965.428
984.589
985.336
752.916
750.016
746.406
743.71
745.942
752.734
753.324
743.58
729.457
712.235
693.508
678.448
669.919
672.149
683.181
698.895
726.911
774.396
828.387
875.569
909.963
926.17
923.766
693.76
690.777
686.455
682.493
685.258
695.077
698.169
688.565
672.654
652.805
631.513
612.876
601.016
600.824
611.109
630.282
664.283
716.825
774.664
823.31
855.769
867.503
860.483
634.571
631.468
626.813
622.442
626.352
639.33
644.294
634.588
616.686
593.966
568.896
545.697
529.633
527.064
536.234
557.725
596.625
656.009
721.082
773.25
802.403
807.061
795.645
575.577
572.416
567.585
564.22
569.957
585.272
591.165
581.081
561.043
535.387
505.654
476.596
455.307
450.637
458.309
480.868
523.548
591.971
668.1
726.368
750.782
747.127
733.754
516.741
514.165
509.437
508.496
516.521
532.885
538.054
527.69
505.571
476.917
441.94
405.182
377.554
371.317
376.859
398.996
442.826
523.008
615.663
683.558
705.096
689.139
665.122
724.612
708.173
679.974
669.216
551.848
439.467
395.829
398.966
381.667
349.468
319.81
301.717
295.773
250.072
225.946
307.929
369.509
408.542
427.122
670.162
647.836
625.201
607.98
478.933
362.731
326.704
336.664
329.904
303.224
268.154
252.402
243.076
193.279
166.554
256.976
317.664
357.39
381.996
618.648
591.104
577.964
543.361
395.369
285.329
258.189
268.801
271.61
244.46
193.657
173.258
163.14
132.105
117.191
205.684
274.726
317.038
345.301
566.795
538.633
530.262
478.587
320.484
215.988
197.172
202.459
199.902
158.258
93.9359
67.3132
77.4543
71.9156
70.67
158.993
235.867
281.469
310.81
515.813
488.1
480.118
430.572
288.287
180.503
150.058
142.035
114.283
69.2426
54.2587
53.399
54.4475
42.3758
33.3177
110.421
191.174
244.742
284.003
467.048
438.655
427.23
406.474
293.422
171.855
121.007
90.5554
59.2084
49.6422
48.8063
49.4583
48.3626
40.0042
23.5631
57.2714
145.785
211.773
269.414
420.711
394.538
377.592
396.864
314.555
169.526
97.9012
61.5372
48.8647
46.8734
46.3899
46.3438
45.2703
42.8082
38.0612
41.9455
88.6668
175.03
237.85
375.733
356.949
336.22
382.582
325.606
154.236
77.6338
54.676
48.6819
45.8874
44.7555
44.1715
43.5467
43.1701
42.6412
42.8103
66.3582
137.34
214.092
429.032
422.291
415.843
419.249
436.409
455.519
457.324
443.599
420.473
388.855
344.915
290.093
246.899
241.525
247.252
276.459
329.224
421.607
527.674
612.649
639.68
587.965
500.33
322.042
309.3
303.313
310.797
332.425
362.058
369.124
352.877
314.404
270.225
211.597
154.786
151.704
160.793
170.318
195.366
231.176
270.111
362.551
470.597
487.384
392.955
256.651
225.967
180.358
166.36
188.576
224.359
275.974
301.721
265.39
208.915
177.915
152.38
128.535
123.122
127.853
135.115
146.679
153.663
131.699
180.419
270.204
285.717
188.524
87.3846
142.805
89.355
79.9557
54.9773
90.3817
177.807
189.745
114.646
87.7647
90.8813
91.5286
86.3547
82.5249
85.5259
85.1606
76.6383
57.0489
32.195
35.139
67.4327
106.645
69.0646
37.1317
89.8534
43.4098
31.5161
17.5531
11.8625
54.4805
50.0592
32.4792
23.4256
17.9125
22.2558
21.3669
24.0641
36.4351
35.3286
21.8016
13.2942
11.7179
10.827
13.8124
20.8505
34.1846
37.2317
84.7098
56.3731
35.6757
14.6861
2.73625
14.6721
18.6216
13.2722
7.56295
4.72781
4.62475
5.14409
6.55989
9.10078
8.94244
5.91806
4.69846
6.54001
6.89962
6.44075
6.28222
21.1943
32.678
94.7722
46.2396
28.2509
17.7159
22.4723
23.6546
19.2307
11.8697
5.44178
4.28747
4.65133
4.89009
5.08055
5.19128
5.11834
4.86994
4.82102
5.31676
5.51911
5.06048
4.95977
6.39654
24.0888
42.9014
21.5047
14.0121
10.6211
17.0921
21.1233
19.8817
13.3431
4.95937
4.72297
5.07994
5.0545
5.03311
4.99963
4.96249
4.95811
5.0133
5.0056
4.86542
4.48257
4.46088
6.58827
21.831
12.7002
9.65217
8.96217
7.96494
8.81719
12.0827
12.2935
8.19253
4.78047
5.28354
5.08855
4.85674
4.79698
4.76648
4.74494
4.76068
4.79813
4.73478
4.49091
4.19629
4.05637
4.14253
13.1132
8.68681
6.97359
7.15801
6.91452
6.69697
6.66863
5.92406
3.15455
3.7261
4.77913
4.84517
4.65903
4.57161
4.52589
4.49622
4.47878
4.45987
4.38288
4.19804
3.96882
3.81328
3.71484
3.34457
8.08215
6.72124
6.60321
6.35119
6.01787
5.33507
4.08675
2.97694
3.65887
4.43507
4.50272
4.40927
4.35884
4.30996
4.26466
4.21975
4.16505
4.07047
3.92584
3.76059
3.6025
3.43152
3.26175
7.73404
6.48904
6.28844
6.06189
5.6834
5.10599
4.25155
3.6311
3.87585
4.19807
4.21312
4.1842
4.15092
4.09715
4.0399
3.97785
3.90263
3.80319
3.68044
3.54434
3.40661
3.27051
3.1487
7.32261
6.04807
5.89318
5.7042
5.34999
4.89508
4.30712
3.89531
3.87693
3.99196
3.98828
3.97223
3.92977
3.87274
3.81038
3.73993
3.65681
3.55753
3.4447
3.32456
3.2038
3.08952
2.99119
7.04693
5.59441
5.4469
5.20536
4.89097
4.5219
4.07221
3.75365
3.69155
3.73502
3.72696
3.70828
3.6696
3.62072
3.56358
3.49286
3.4065
3.30771
3.20274
3.09708
2.99539
2.90198
2.81917
6.77026
5.21568
4.96695
4.62966
4.34579
4.02658
3.66111
3.40303
3.33005
3.33455
3.33314
3.32823
3.3157
3.29916
3.27421
3.22196
3.14167
3.04646
2.94989
2.85859
2.77571
2.70276
2.63958
6.8093
5.22791
4.45072
4.02205
3.74592
3.45614
3.14353
2.89785
2.76601
2.70625
2.6894
2.71735
2.78393
2.85662
2.91227
2.91288
2.85355
2.76624
2.68132
2.60694
2.54455
2.49317
2.45101
9.59612
5.47077
3.63943
3.29619
3.03035
2.75908
2.44706
2.13345
1.87644
1.71561
1.70394
1.84026
2.0531
2.25553
2.43086
2.5322
2.53329
2.45956
2.38987
2.33829
2.30035
2.27345
2.25448
12.5232
2.45722
2.16291
2.2539
2.10029
1.84405
1.4652
1.00882
0.591099
0.3749
0.48953
0.849395
1.22778
1.5339
1.81868
2.03497
2.13964
2.10381
2.06457
2.04804
2.04222
2.04422
2.05108
-1.60036
-1.33785
0.802596
1.01777
1.00811
0.720115
0.216149
-0.428145
-0.970986
-1.06556
-0.697349
-0.105369
0.422376
0.790094
1.08996
1.36468
1.57191
1.68295
1.70312
1.73517
1.77178
1.80811
1.84348
-1.09313
-1.40047
-0.0405269
-0.0581087
-0.0482513
-0.468503
-1.14018
-1.9409
-2.46178
-2.35697
-1.79101
-1.02025
-0.401964
-0.0197408
0.240525
0.527282
0.849732
1.13998
1.29857
1.40556
1.49571
1.57094
1.63629
1.96202
-0.707251
-0.407712
-0.754562
-0.92277
-1.54528
-2.3581
-3.2059
-3.62521
-3.3971
-2.69831
-1.83815
-1.25077
-0.91864
-0.682018
-0.363919
0.102698
0.563451
0.889892
1.08373
1.2289
1.34233
1.43607
2.15181
-0.574453
-0.698714
-1.2593
-1.62899
-2.41093
-3.26579
-4.07985
-4.40734
-4.08888
-3.31461
-2.42701
-1.97145
-1.72618
-1.43677
-1.02768
-0.415148
0.144882
0.546747
0.803077
0.989823
1.13333
1.24985
0.84763
-0.478804
-1.13094
-1.74284
-2.22784
-3.07361
-3.89573
-4.64439
-4.86138
-4.44295
-3.51563
-2.75179
-2.33118
-2.10519
-1.71246
-1.20487
-0.596238
-0.0743469
0.312813
0.587603
0.791817
0.95203
1.08299
4.69026
-0.531686
-1.95677
-2.22258
-2.76113
-3.58706
-4.3478
-4.98345
-5.07782
-4.46502
-3.54018
-2.8071
-2.33941
-1.97461
-1.52934
-1.05016
-0.58395
-0.157481
0.178697
0.433945
0.635943
0.800421
0.937612
7.8294
-2.82924
-2.72747
-2.71298
-3.23037
-3.9632
-4.63687
-5.15274
-5.05868
-4.41574
-3.49222
-2.73465
-2.16285
-1.70823
-1.29403
-0.893157
-0.512977
-0.17804
0.0969187
0.324372
0.514833
0.675664
0.812918
-1.45602
-4.06924
-2.79385
-3.08455
-3.52446
-4.16956
-4.78013
-5.11697
-4.90604
-4.25387
-3.39204
-2.63397
-2.02162
-1.54359
-1.14534
-0.787957
-0.470722
-0.197157
0.0389875
0.243254
0.420039
0.573259
0.706606
-0.580867
-2.43793
-2.41521
-3.16882
-3.54948
-4.14323
-4.66544
-4.87315
-4.59546
-3.97937
-3.22684
-2.52096
-1.92562
-1.45526
-1.06765
-0.738722
-0.458671
-0.216295
-0.00449096
0.181397
0.344896
0.488858
0.615959
3.37335
-1.32507
-2.32945
-3.04463
-3.40327
-3.93305
-4.32257
-4.43144
-4.15913
-3.64058
-3.01844
-2.38904
-1.83251
-1.3836
-1.01549
-0.709511
-0.451229
-0.229202
-0.0358185
0.134413
0.285143
0.419074
0.538433
5.7675
-2.59746
-2.65022
-2.95779
-3.287
-3.6574
-3.88285
-3.93879
-3.74346
-3.34076
-2.81376
-2.24388
-1.72638
-1.30346
-0.959513
-0.674482
-0.435854
-0.232106
-0.0553717
0.100067
0.238067
0.361332
0.471902
1.98
-4.0642
-2.64776
-2.94737
-3.2251
-3.41431
-3.53436
-3.58087
-3.46983
-3.13932
-2.63223
-2.08693
-1.59951
-1.20446
-0.886135
-0.624787
-0.407397
-0.22294
-0.0633614
0.0769198
0.20172
0.31364
0.414612
-1.35948
-2.93524
-2.62215
-2.9497
-3.12011
-3.24298
-3.3488
-3.39362
-3.30424
-2.99196
-2.44918
-1.90248
-1.44023
-1.07725
-0.789892
-0.5569
-0.364292
-0.201369
-0.0604718
0.0636288
0.174436
0.274301
0.364986
-1.6684
-2.02221
-3.11885
-2.92471
-3.0402
-3.16838
-3.23611
-3.25809
-3.21174
-2.83471
-2.20885
-1.66576
-1.23691
-0.917234
-0.669613
-0.470888
-0.307256
-0.168637
-0.0482105
0.0585212
0.154514
0.24172
0.321563
-1.70967
-1.98166
-2.59561
-2.65364
-2.88705
-3.0816
-3.16298
-3.17511
-3.05352
-2.40764
-1.83572
-1.34925
-0.983231
-0.725302
-0.528257
-0.370252
-0.239522
-0.127585
-0.0290556
0.0594479
0.140091
0.214262
0.282946
-1.45352
-1.23226
-1.45737
-2.42201
-2.60341
-2.72285
-3.09806
-2.98205
-2.48543
-1.74423
-1.332
-0.956694
-0.691603
-0.512721
-0.374838
-0.262054
-0.166448
-0.0822954
-0.00618637
0.0638741
0.1291
0.190213
0.247713
-1.22168
-1.17094
-1.09312
-1.44795
-1.63291
-1.93665
-2.10034
-1.53269
-1.12882
-0.955908
-0.755041
-0.536425
-0.395444
-0.300709
-0.22337
-0.155821
-0.0946981
-0.0375666
0.0168314
0.0690684
0.119385
0.167835
0.214435
-0.924869
-0.955898
-0.902
-0.742336
-0.437759
-0.323769
-0.423187
-0.252279
-0.0980566
-0.222902
-0.213731
-0.164745
-0.135729
-0.113582
-0.0890506
-0.0614086
-0.0310014
0.00181158
0.0364743
0.0723524
0.108849
0.145438
0.181729
-0.600533
-0.664826
-0.596826
-0.27283
0.637443
1.01013
0.859903
0.584354
0.415652
0.254457
0.163845
0.103208
0.0594486
0.0308855
0.0163074
0.0131989
0.0190477
0.031798
0.0497346
0.0714165
0.0956687
0.121559
0.148403
-0.282095
-0.285682
-0.185764
0.178965
0.836319
1.29345
1.21477
0.955427
0.691328
0.512634
0.37095
0.262473
0.18259
0.125358
0.086732
0.0632862
0.0518024
0.0495843
0.0544266
0.0645403
0.0784864
0.095128
0.113609
-0.0641099
-0.0276857
0.0983205
0.414694
0.91326
1.20355
1.14886
0.942742
0.743787
0.578585
0.438025
0.324218
0.236193
0.169672
0.120985
0.0872367
0.0655926
0.0535934
0.0491537
0.050535
0.0563081
0.0653044
0.0766172
0.0341552
0.0742267
0.186499
0.398984
0.676624
0.845366
0.843177
0.748216
0.627369
0.507751
0.398776
0.305188
0.228422
0.168035
0.12105
0.0859526
0.0607269
0.0437728
0.033618
0.0289011
0.028433
0.0312075
0.0364048
0.0501188
0.0775352
0.147641
0.268661
0.411605
0.503079
0.517853
0.48082
0.419576
0.351173
0.283991
0.222864
0.17031
0.126816
0.0923033
0.0638682
0.0407093
0.0227541
0.00969986
0.000943776
-0.00420745
-0.00644608
-0.00641475
0.0212884
0.0273022
0.0485729
0.0874511
0.132742
0.165144
0.177366
0.173122
0.158365
0.137722
0.114608
0.0918492
0.0713564
0.0541949
0.040208
0.0253564
0.00905778
-0.00599833
-0.018664
-0.0287443
-0.0364189
-0.0420208
-0.0459383
434.816
381.647
339.826
320.369
183.917
147.958
133.529
140.355
51.8637
45.8388
50.4672
58.0111
54.8366
44.6811
43.1783
48.0741
38.3447
38.568
38.6214
38.5249
37.8955
38.1744
38.1442
38.1258
28.7248
36.7385
37.6147
37.6907
24.3834
16.8935
26.1321
31.1875
30.9125
33.6454
29.9526
27.2737
4.65753
14.9383
27.1438
32.6117
3.27929
3.20453
3.13621
4.15666
3.05231
2.99699
2.96907
2.98003
2.92368
2.88077
2.83899
2.80002
2.76418
2.73159
2.70143
2.67341
2.5989
2.57445
2.55173
2.53067
2.42531
2.41028
2.39658
2.38407
2.24471
2.23953
2.23538
2.2322
2.05824
2.06338
2.06901
2.0751
1.86836
1.88404
1.8995
1.91477
1.67895
1.70501
1.72994
1.75393
1.49516
1.53071
1.56423
1.59604
1.32234
1.36568
1.40626
1.44449
1.16467
1.2135
1.25915
1.30207
1.02415
1.07609
1.12474
1.17052
0.900724
0.953677
1.00348
1.05047
0.793029
0.8454
0.894864
0.941689
0.69917
0.749796
0.797804
0.843396
0.617193
0.665267
0.711006
0.754566
0.545334
0.590274
0.633147
0.674083
0.482022
0.523385
0.562959
0.600835
0.425853
0.463313
0.499263
0.533765
0.375539
0.408866
0.440963
0.471872
0.329824
0.358888
0.387004
0.41419
0.287463
0.31224
0.336339
0.359757
0.247201
0.267765
0.287903
0.307592
0.207827
0.224353
0.240677
0.256755
0.168306
0.181059
0.193798
0.206463
0.127922
0.137246
0.146695
0.156207
0.086011
0.0922742
0.0987473
0.105373
0.0414528
0.0449765
0.0487523
0.0527313
-0.00518875
-0.0040866
-0.00270558
-0.00109019
-0.0478868
-0.0488838
-0.0496615
-0.0502509
311.07
297.464
276.76
318.781
297.078
108.292
67.4345
56.0681
48.5679
44.8624
43.0275
42.1875
41.9783
42.2549
43.1407
45.637
55.8543
86.7898
172.555
170.962
199.016
204.265
199.491
169.83
76.6435
60.6629
51.0753
45.5539
43.3779
41.9918
41.6723
41.7775
42.1533
42.9584
44.8518
48.9678
52.6129
152.618
68.0203
84.6898
91.5067
59.9868
47.6048
47.5554
46.9902
41.6391
41.9186
41.828
41.0768
41.0151
41.2027
41.7189
42.5277
44.2676
48.2255
61.6766
151.74
66.9613
85.0403
84.572
61.5296
34.2529
43.3542
36.1392
36.3729
39.6315
40.2242
39.8481
39.8493
40.2279
41.0628
41.6236
41.0053
45.4568
78.2597
149.127
38.5031
39.1435
39.8979
40.5624
41.896
38.7104
34.9341
35.7696
38.5616
38.7999
38.6817
38.8817
39.4425
38.0999
33.0327
33.9296
41.9549
63.7113
102.873
38.1568
38.2562
38.1297
37.799
37.6463
37.2018
36.0722
36.5579
37.8058
37.6856
37.6441
38.2497
35.8312
29.4182
23.7011
21.2064
25.0557
22.0621
38.5954
38.1078
38.1762
38.1966
38.2778
38.1237
37.8751
37.6373
37.6481
37.4923
37.0219
37.0609
37.1892
31.4923
20.4564
14.2183
10.4072
13.0609
3.04563
3.61003
36.4439
37.4069
38.3691
38.7737
38.7198
38.6958
38.6854
38.4828
37.693
36.7411
37.2065
35.2804
21.9405
10.0248
11.5684
7.16279
4.97522
3.46819
5.32051
20.3265
28.9842
37.9663
39.3885
39.5348
39.5282
39.4816
39.0481
37.9832
36.9513
36.2294
20.472
8.81255
5.54791
5.17619
5.09585
4.82409
4.178
4.71606
35.1741
31.2247
25.6154
39.0313
40.5092
40.1971
39.9246
39.4154
38.4469
37.5297
36.1883
6.62663
3.39256
5.11708
5.33654
5.05081
4.76761
4.62596
4.90987
15.608
27.673
22.22
31.6225
40.8317
40.915
40.1794
39.619
38.9071
37.8951
28.0305
4.3008
4.68253
5.08072
5.04919
4.82837
4.63046
4.67063
4.85798
2.91178
4.76299
15.9541
20.2284
30.3234
40.6869
40.0016
39.7287
39.3737
38.4981
17.897
5.10699
4.68774
4.74502
4.71156
4.58948
4.47511
4.50914
4.68573
2.74787
2.69056
2.58227
10.7363
20.2768
35.7961
39.9172
39.9288
39.4511
30.4118
6.97992
4.22507
4.3193
4.40451
4.39442
4.34421
4.29447
4.2828
4.42797
2.62823
2.57112
2.53738
2.44772
10.6015
26.4674
32.3823
33.2979
28.9946
10.7673
4.10033
3.90278
4.0134
4.08957
4.10453
4.09122
4.07218
4.0383
4.13975
2.49785
2.45704
2.42527
2.38815
2.63241
18.2996
23.5046
29.1879
21.8974
5.3244
3.5703
3.61945
3.73426
3.80317
3.83342
3.8342
3.82496
3.80527
3.85515
2.36535
2.34486
2.32824
2.32589
2.30734
2.30174
9.81233
8.28383
3.04501
2.94121
3.14847
3.33291
3.47332
3.5445
3.58142
3.59172
3.58164
3.58993
3.59783
2.22852
2.22944
2.23736
2.24828
2.26972
2.36131
2.44342
2.56063
2.71157
2.81297
3.02662
3.16419
3.25484
3.31589
3.35231
3.36913
3.35525
3.37707
3.37632
2.08612
2.10553
2.13018
2.16017
2.20438
2.26909
2.35476
2.49112
2.6336
2.73223
2.86518
2.97354
3.05208
3.10658
3.14083
3.16086
3.14861
3.15786
3.17291
1.94024
1.97716
2.01703
2.06272
2.12216
2.19551
2.28194
2.38607
2.49721
2.60123
2.70766
2.79598
2.86238
2.91076
2.9433
2.96487
2.95887
2.94957
2.98202
1.79283
1.84528
1.89834
1.95505
2.01929
2.09231
2.17666
2.27183
2.36974
2.46399
2.552
2.62446
2.67985
2.72304
2.7556
2.78036
2.78458
2.76009
2.80669
1.64684
1.71274
1.7767
1.8418
1.91084
1.98499
2.06521
2.1507
2.23783
2.32149
2.39484
2.45267
2.49763
2.53739
2.57318
2.60583
2.62623
2.61254
2.65181
1.50505
1.58183
1.65428
1.72523
1.7969
1.87064
1.94716
2.02572
2.10394
2.17617
2.23444
2.27738
2.31281
2.35173
2.39421
2.43822
2.4785
2.49379
2.5133
1.36982
1.45465
1.53319
1.6081
1.68135
1.75419
1.82706
1.89958
1.96985
2.03066
2.07433
2.10373
2.13129
2.17185
2.22241
2.27915
2.33656
2.36753
2.37949
1.24279
1.33279
1.41516
1.49231
1.56606
1.63752
1.70706
1.77465
1.83849
1.89052
1.92394
1.94523
1.96579
2.00981
2.06576
2.13231
2.20473
2.22883
2.24339
1.12477
1.21728
1.30141
1.37933
1.45267
1.52244
1.58905
1.6528
1.71239
1.76055
1.79059
1.80882
1.83225
1.87588
1.93583
2.007
2.0773
2.08108
2.10262
1.01593
1.10859
1.19267
1.27004
1.34215
1.40995
1.47393
1.53469
1.59184
1.64047
1.67474
1.699
1.72765
1.77244
1.83165
1.89391
1.94141
1.94046
1.96001
0.915901
1.00679
1.08924
1.16489
1.23499
1.30045
1.36182
1.41981
1.4748
1.52448
1.56562
1.59995
1.63602
1.68081
1.73082
1.77219
1.79625
1.80268
1.8162
0.824052
0.91159
0.991124
1.06401
1.13136
1.19401
1.25252
1.30748
1.35942
1.40746
1.45096
1.49039
1.5289
1.56877
1.60636
1.63607
1.65221
1.66219
1.67188
0.739573
0.822526
0.898076
0.96734
1.03129
1.09065
1.14593
1.19756
1.24587
1.29054
1.3314
1.3697
1.40568
1.43952
1.46989
1.4949
1.5119
1.52232
1.5301
0.661607
0.739023
0.809748
0.874715
0.934716
0.990362
1.04208
1.09021
1.13495
1.17615
1.21355
1.248
1.28053
1.31068
1.33751
1.35997
1.37597
1.38593
1.39247
0.589295
0.660464
0.725742
0.785885
0.84151
0.893108
0.941018
0.985516
1.0268
1.06475
1.09942
1.13073
1.15988
1.18686
1.21056
1.23029
1.2445
1.25363
1.25909
0.521795
0.586218
0.645609
0.700533
0.751464
0.798753
0.842659
0.883426
0.921204
0.955925
0.987771
1.0166
1.04286
1.06666
1.0873
1.10441
1.11691
1.12515
1.12964
0.45828
0.515641
0.568843
0.618272
0.664271
0.707051
0.746807
0.783736
0.817929
0.849367
0.878216
0.904295
0.927746
0.948767
0.966816
0.981775
0.992767
1.00019
1.00377
0.397917
0.448056
0.494891
0.538655
0.579561
0.617695
0.6532
0.686205
0.716764
0.744883
0.770655
0.793843
0.814742
0.833161
0.848951
0.862015
0.871588
0.878141
0.881294
0.339861
0.382767
0.42318
0.461209
0.496944
0.530363
0.561569
0.590619
0.617535
0.642318
0.665019
0.685317
0.703723
0.719734
0.733455
0.744768
0.752964
0.758614
0.761614
0.283298
0.319099
0.353153
0.385474
0.416034
0.444736
0.471642
0.496748
0.52003
0.541479
0.561186
0.578502
0.594482
0.608216
0.620001
0.629635
0.636597
0.641407
0.644116
0.227563
0.256515
0.284387
0.31111
0.33656
0.360593
0.383225
0.404412
0.42406
0.442165
0.458755
0.47346
0.486942
0.498437
0.508362
0.516324
0.522312
0.526271
0.528537
0.172238
0.19469
0.216624
0.237898
0.25834
0.277779
0.296175
0.313433
0.329468
0.344261
0.35781
0.369837
0.380883
0.390237
0.39833
0.404767
0.409708
0.412904
0.41473
0.116702
0.132998
0.149232
0.16523
0.180776
0.195694
0.209888
0.223253
0.235714
0.247237
0.257783
0.267255
0.275793
0.283117
0.28941
0.294417
0.298326
0.30078
0.302169
0.0597069
0.0702105
0.0810316
0.0919657
0.102779
0.113298
0.123402
0.132985
0.141976
0.150321
0.157972
0.164878
0.171051
0.176386
0.180941
0.184584
0.187511
0.189174
0.190281
0.00196855
0.00709911
0.0127934
0.0188561
0.0250837
0.0313185
0.0374284
0.0433072
0.0488795
0.0540855
0.0588767
0.0632129
0.0670721
0.0704138
0.0732476
0.0755127
0.0773625
0.0784855
0.0793179
-0.0509488
-0.0511576
-0.0506898
-0.0496388
-0.0481698
-0.046426
-0.0445398
-0.0426116
-0.0407047
-0.0388715
-0.037159
-0.0356066
-0.0342413
-0.0330813
-0.0321108
-0.0313482
-0.0306845
-0.0302562
-0.0294916
)
;

boundaryField
{
    leftWall
    {
        type            calculated;
        value           nonuniform List<scalar> 
50
(
927.947
869.379
811.395
752.916
693.76
634.571
575.577
516.741
429.032
322.042
225.967
142.805
89.8534
84.7098
94.7722
42.9014
12.7002
8.68681
8.08215
7.73404
7.32261
7.04693
6.77026
6.8093
9.59612
12.5232
-1.60036
-1.09313
1.96202
2.15181
0.84763
4.69026
7.8294
-1.45602
-0.580867
3.37335
5.7675
1.98
-1.35948
-1.6684
-1.70967
-1.45352
-1.22168
-0.924869
-0.600533
-0.282095
-0.0641099
0.0341552
0.0501188
0.0212884
)
;
    }
    rightWall
    {
        type            calculated;
        value           nonuniform List<scalar> 
50
(
427.122
381.996
345.301
310.81
284.003
269.414
237.85
214.092
172.555
152.618
151.74
149.127
102.873
38.5954
3.61003
5.32051
4.71606
4.90987
4.85798
4.68573
4.42797
4.13975
3.85515
3.59783
3.37632
3.17291
2.98202
2.80669
2.65181
2.5133
2.37949
2.24339
2.10262
1.96001
1.8162
1.67188
1.5301
1.39247
1.25909
1.12964
1.00377
0.881294
0.761614
0.644116
0.528537
0.41473
0.302169
0.190281
0.0793179
-0.0294916
)
;
    }
    lowerWall
    {
        type            calculated;
        value           nonuniform List<scalar> 
62
(
957.376
954.773
954.287
955.073
956.269
957.79
954.454
945.273
933.056
919.103
905.09
894.329
889.2
890.52
899.942
919.24
946.029
982.498
1026.85
1072.19
1110.96
1133.71
1136.37
1106.95
1046.53
985.336
923.766
860.483
795.645
733.754
665.122
496.306
443.137
401.316
381.855
724.612
670.162
618.648
566.795
515.813
467.048
420.711
375.733
753.618
737.274
708.989
696.339
580.108
468.653
425.037
428.174
408.696
370.37
340.712
322.625
318.913
273.47
247.273
329.256
391.974
433.428
451.819
)
;
    }
    atmosphere
    {
        type            calculated;
        value           nonuniform List<scalar> 
46
(
0
0
0
0
0
0
0
0
0
0
0
0
0
0
-0.000258857
-0.00537983
-0.014109
-0.02391
-0.0334224
-0.0419934
-0.0493907
-0.0556441
-0.0608997
-0.0641957
-0.066146
-0.0679824
-0.0697111
-0.0723594
-0.0754312
-0.0777814
-0.0794284
-0.0805632
-0.0813137
-0.0818005
-0.0821106
-0.0822867
-0.0823736
-0.0824188
-0.0824635
-0.0825336
-0.082644
-0.0827544
-0.0828921
-0.0829299
-0.0830073
-0.0819867
)
;
    }
    defaultFaces
    {
        type            empty;
    }
}


// ************************************************************************* //
