/*--------------------------------*- C++ -*----------------------------------*\
  =========                 |
  \\      /  F ield         | OpenFOAM: The Open Source CFD Toolbox
   \\    /   O peration     | Website:  https://openfoam.org
    \\  /    A nd           | Version:  13
     \\/     M anipulation  |
\*---------------------------------------------------------------------------*/
FoamFile
{
    format      ascii;
    class       volScalarField;
    location    "1";
    object      p_rgh;
}
// * * * * * * * * * * * * * * * * * * * * * * * * * * * * * * * * * * * * * //

dimensions      [1 -1 -2 0 0 0 0];

internalField   nonuniform List<scalar> 
2268
(
957.376
954.773
954.287
955.073
956.269
957.79
954.454
945.273
933.056
919.103
905.09
894.329
889.2
890.52
899.942
919.24
946.029
982.498
1026.85
1072.19
1110.96
1133.71
1136.37
957.667
954.322
953.683
954.211
955.792
958.08
955.177
945.916
933.436
919.025
904.23
892.834
887.43
887.689
896.503
913.566
938.041
974.959
1024.51
1071.11
1109.68
1132.27
1134.81
958.541
955.666
953.246
952.274
954.226
958.358
956.685
947.301
934.141
918.588
902.372
889.532
883.22
885.065
891.241
905.612
929.288
972.019
1028.68
1076.36
1112.58
1131.74
1132.48
958.921
956.022
952.412
949.715
951.947
958.74
959.33
949.585
935.462
918.241
899.514
884.454
875.923
878.126
886.74
898.393
927.76
979.985
1034.39
1081.57
1115.97
1132.18
1129.77
958.624
955.642
951.319
947.356
950.121
959.941
963.033
953.429
937.519
917.669
896.377
877.74
865.881
865.688
875.961
894.926
929.096
981.689
1039.53
1088.17
1120.63
1132.37
1125.35
958.294
955.191
950.536
946.165
950.073
962.984
967.829
958.297
940.409
917.689
892.619
869.42
853.356
850.787
859.956
881.446
920.347
979.732
1044.8
1096.97
1126.12
1130.78
1119.36
958.159
954.997
950.167
946.802
952.539
967.554
973.253
963.546
943.625
917.969
888.236
859.178
837.888
833.217
840.889
863.449
906.129
974.552
1050.68
1108.93
1133.28
1129.63
1116.19
958.181
955.606
950.877
949.936
957.961
973.918
978.926
968.879
947.011
918.358
883.38
846.623
818.994
812.758
818.299
840.436
884.266
964.449
1057.1
1124.91
1145.72
1125.97
1097.43
753.618
737.274
708.989
696.339
580.108
468.653
425.037
428.174
408.696
370.37
340.712
322.625
318.913
273.47
247.273
329.256
391.974
433.428
451.819
757.477
734.998
698.048
676.195
554.639
450.277
414.326
424.287
400.348
366.308
340.755
325.148
315.882
266.208
234.901
320.964
392.137
431.981
438.929
764.174
728.314
688.578
663.717
534.066
431.315
404.199
407.597
387.748
366.351
314.503
290.128
279.513
254.196
239.253
313.414
398.745
432.755
440.178
770.182
710.869
685.014
682.851
524.848
420.362
401.185
388.331
382.176
336.035
215.047
125.072
133.226
224.592
243.145
332.165
409.453
417.691
446.925
776.888
711.246
681.976
693.217
550.987
443.257
412.756
391.887
335.431
173.277
63.1677
54.6515
56.7893
101.57
250.465
332.175
370.432
419
459.132
784.519
705.911
722.448
726.42
613.781
492.931
441.669
368.725
161.287
52.545
49.8069
50.2436
49.4731
42.3442
115.736
308.797
381.933
393.196
459.052
797.661
710.386
731.542
774.885
692.645
548.494
441.906
207.993
52.7427
48.1382
47.1516
46.999
45.9881
43.7593
39.6833
110.549
192.534
204.999
261.444
811.687
721.467
733.244
818.293
724.104
501.715
243.426
58.6806
49.9298
46.815
45.4913
44.888
44.2736
43.9549
43.6046
44.2252
68.5368
142.086
227.412
929.671
950.044
949.31
952.569
968.888
988.664
990.783
977.06
953.938
921.753
866.339
821.057
780.366
746.567
711.112
698.151
705.476
804.807
982.801
1134.3
1125.88
1057.83
1011.22
669.868
713.554
880.771
952.67
982.873
1020.5
1027.77
1000.03
958.98
928.133
838.391
496.835
259.604
260.122
286.064
313.775
361.233
609.008
915.339
965.833
936.813
936.303
901.484
639.07
595.554
599.23
876.236
1007.51
1059.28
1085.45
1037.56
685.544
358.012
262.477
237.637
232.224
237.125
246.515
360.641
484.032
477.003
503.673
602.814
914.39
947.912
852.535
699.555
736.074
741.83
770.219
890.563
1086.04
973.374
456.905
232.581
289.315
354.748
349.574
345.037
366.482
366.572
357.629
328.684
119.324
94.3453
572.449
969.192
943.928
823.445
642.9
197.818
72.8489
181.97
469.21
613.268
239.966
44.1896
32.6919
160.532
292.28
288.1
155.171
129.533
133.804
121.265
74.6064
33.8975
23.4071
171.612
728.543
1015.52
457.648
618.391
81.1437
75.8156
171.948
64.5119
45.5522
28.325
18.2032
10.6715
6.80898
5.78436
6.31623
19.6659
69.9528
73.9421
31.3438
23.8441
16.287
12.644
17.2793
270.549
1006.6
434.928
721.182
58.8836
78.5083
155.612
57.4983
34.3298
24.3966
14.7825
7.19732
5.76977
5.93608
6.17492
6.36566
6.47747
6.40936
6.1797
6.61778
8.74182
8.66497
10.1351
52.227
566.024
796.456
751.945
33.4137
26.1685
46.8624
66.8567
86.1867
72.488
56.8942
28.0609
11.0927
6.48986
6.46445
6.44316
6.41006
6.37453
6.37688
6.50523
6.55404
6.47091
6.33493
8.54553
226.578
888.432
784.714
14.4006
11.1001
12.0454
52.6928
83.0301
83.3649
78.689
73.921
9.25181
6.62362
6.39184
6.33232
6.30286
6.3198
6.42409
6.52071
6.51311
6.20375
5.76651
5.68454
7.01748
339.798
833.374
9.04336
9.01511
9.00305
12.8752
36.0472
66.2174
77.934
44.8774
6.491
6.50543
6.31928
6.23187
6.18621
6.22055
6.37377
6.37497
6.3067
6.06045
5.65094
5.50155
5.40194
5.22758
882.531
8.67388
8.47077
8.33058
9.40728
10.1126
11.7555
14.3132
6.32983
6.22734
6.28817
6.19471
6.14428
6.09541
6.05011
6.00518
6.03117
6.05917
5.81701
5.55135
5.38795
5.21749
5.04737
923.033
8.46733
8.23007
8.12068
7.99973
7.56723
6.85894
5.7515
5.91523
6.11184
6.12376
6.09484
6.06156
6.00778
5.95052
5.88846
5.81324
5.7138
5.59106
5.457
5.31722
5.18113
5.05935
957.318
8.11201
7.94183
7.76801
7.421
7.02079
6.4523
5.96826
5.93478
6.02841
6.02412
6.00807
5.96562
5.90858
5.8462
5.77575
5.69262
5.59333
5.48051
5.36036
5.2396
5.12569
5.02767
1008.27
7.76807
7.61427
7.37241
7.05986
6.6936
6.24452
5.92207
5.85519
5.89621
5.88801
5.86962
5.83095
5.7819
5.72477
5.65397
5.56752
5.46871
5.36374
5.25808
5.1564
5.06304
4.98056
1074.26
7.50855
7.25708
6.91824
6.63468
6.31627
5.95221
5.69301
5.61728
5.62125
5.6202
5.61881
5.604
5.58737
5.56255
5.50924
5.42802
5.33267
5.23608
5.14479
5.06192
4.98895
4.92578
1154.06
7.67208
6.86458
6.43491
6.15911
5.8699
5.55854
5.31423
5.18086
5.11866
5.14828
5.32579
5.41501
5.36016
5.3926
5.33355
5.26577
5.17776
5.09272
5.01833
4.95594
4.90456
4.8624
1214.1
11.3547
6.17755
5.834
5.56844
5.29759
4.98645
4.67456
4.41996
4.3834
5.05198
5.25648
5.50754
5.77639
5.95484
5.61158
5.09605
4.99654
4.92646
4.87487
4.83693
4.81003
4.79106
761.871
12.5288
4.82597
4.91689
4.76336
4.50759
4.13061
3.68482
3.68639
3.81597
3.97945
4.12361
4.67978
5.42804
5.74553
5.96605
5.63369
4.77866
4.72977
4.70983
4.704
4.70599
4.71286
11.9524
4.12976
3.59083
3.80599
3.79639
3.51134
3.01169
2.69688
2.51175
2.42103
2.12431
2.70379
3.23562
3.69599
5.05579
5.48881
5.69476
4.98164
4.5104
4.52235
4.55875
4.59508
4.63044
129.387
1.5142
2.87282
2.85529
2.86523
2.44648
1.88811
1.60267
1.11833
0.58549
1.14397
1.91295
2.53291
2.92106
3.72899
4.83534
5.15912
5.30838
4.25928
4.31798
4.40787
4.48311
4.54846
766.076
2.33134
2.63075
2.28397
2.1163
1.49554
0.761914
0.152351
-0.407257
-0.314573
0.373433
1.21516
1.80572
2.44364
3.58241
4.12417
4.59596
4.9986
3.9781
4.12109
4.26626
4.37969
4.47343
923.556
2.58925
2.46499
1.9044
1.53491
0.765275
-0.0845108
-0.876894
-1.14479
-0.790623
0.095942
0.751021
1.24684
2.84683
3.19061
3.62781
4.25788
3.82919
3.7093
3.96563
4.15238
4.29588
4.41241
962.597
3.05528
2.15838
1.54617
1.06129
0.239026
-0.395801
-0.769229
-1.39366
-0.244208
0.0669321
0.541339
1.10501
2.59983
3.06811
3.53232
3.44945
3.2134
3.60056
3.87535
4.07956
4.23978
4.37074
1002.5
6.57451
1.46253
1.19179
0.654069
-0.144158
-0.0615406
-0.598009
-0.689138
-0.0786913
0.0522616
0.608807
1.13937
1.84917
2.65722
2.5112
2.82899
3.25546
3.59164
3.84689
4.04888
4.21336
4.35055
1006.39
11.7095
0.825094
0.827437
0.316691
-0.368932
-0.0905622
-0.590679
-0.492501
0.146297
0.103521
0.804515
1.3753
1.82991
2.24411
2.64498
3.02516
3.3601
3.63505
3.86251
4.05297
4.2138
4.35105
270.225
8.89324
0.895773
0.584739
0.148275
0.158638
-0.0572602
-0.389213
-0.178046
0.163352
0.285558
1.0295
1.64172
2.11975
2.518
2.87537
3.19261
3.46617
3.70232
3.90658
4.08337
4.23659
4.36994
101.989
8.64059
1.40893
0.630453
0.249366
0.715957
0.221985
0.016473
0.293867
0.360718
0.566046
1.26815
1.86294
2.33328
2.72093
3.04984
3.32985
3.57223
3.78403
3.96992
4.13342
4.27738
4.40448
329.33
13.3591
1.7704
0.88502
0.521792
0.618966
0.708697
0.617494
0.891532
0.764222
0.90292
1.52645
2.08145
2.53021
2.89833
3.20429
3.46249
3.68452
3.8779
4.04813
4.19886
4.33279
4.45215
351.76
27.1269
1.72372
1.10899
0.766403
0.403989
0.624626
0.416093
1.4543
1.1672
1.24354
1.7987
2.31325
2.73557
3.07947
3.36447
3.60306
3.80681
3.98354
4.13898
4.27698
4.40025
4.51082
337.711
97.0807
1.74045
1.31902
0.962357
0.791705
0.712895
0.699136
1.67292
1.67598
1.61797
2.08472
2.56576
2.95977
3.27797
3.53932
3.75671
3.94117
4.10075
4.24103
4.36583
4.47775
4.57872
30.8923
103.496
4.8973
1.49835
1.21211
1.1207
1.03376
0.998879
1.6847
2.35333
2.01082
2.39711
2.85057
3.21222
3.49942
3.7324
3.92501
4.08793
4.22883
4.35293
4.46374
4.5636
4.65429
4.55798
107.756
19.6017
1.68239
1.45386
1.34827
1.28185
1.26978
2.62539
3.05398
2.36567
2.76246
3.17946
3.49748
3.7449
3.94361
4.10724
4.24586
4.36629
4.47302
4.56901
4.65622
4.73606
3.35799
110.822
102.68
7.68963
1.84924
1.56449
1.49365
4.84324
10.0009
3.62374
2.81139
3.20773
3.55864
3.81462
4.01145
4.16944
4.30017
4.41211
4.51064
4.59914
4.67978
4.75395
4.82264
3.54361
66.5019
103.349
77.1442
16.4794
4.04009
27.4772
44.4577
18.1079
3.53693
3.44706
3.72572
3.9755
4.15239
4.29007
4.40283
4.49844
4.58259
4.6587
4.72876
4.79399
4.8551
4.9126
3.66351
5.4532
89.7696
88.189
79.8767
63.8724
59.2997
55.0012
14.0718
4.3218
4.12114
4.26669
4.39628
4.48954
4.56673
4.63426
4.69538
4.75251
4.80691
4.85915
4.90947
4.95792
5.00452
4.02527
4.09884
30.7326
75.7659
78.2376
73.0257
68.6783
33.0419
6.56216
4.94019
4.74383
4.75707
4.78038
4.80178
4.82623
4.85387
4.88427
4.91709
4.95175
4.98763
5.02412
5.06071
5.097
4.45233
4.51055
5.1807
23.4509
51.6286
60.2694
37.4469
10.621
5.92657
5.37978
5.21759
5.14559
5.10015
5.07138
5.05678
5.05367
5.05952
5.07227
5.0902
5.11189
5.13614
5.16203
5.18887
4.88745
4.96356
5.23116
6.94616
11.3744
12.499
8.75655
6.91517
6.01504
5.69995
5.53965
5.42849
5.34829
5.29103
5.2524
5.22895
5.21747
5.21525
5.22009
5.2302
5.24415
5.26079
5.27927
5.22804
5.28358
5.46629
6.10876
6.91578
7.18383
6.86878
6.37843
6.06626
5.87402
5.72946
5.61514
5.52706
5.46053
5.41184
5.3781
5.35645
5.34445
5.34001
5.34139
5.34717
5.35616
5.36748
5.45039
5.49218
5.61759
5.90186
6.25416
6.40682
6.34376
6.1914
6.04927
5.92462
5.81492
5.72125
5.64448
5.58409
5.5371
5.50201
5.47678
5.45983
5.44967
5.44495
5.44449
5.44726
5.45246
5.59144
5.61894
5.69167
5.82709
5.99637
6.08202
6.07461
6.02664
5.96175
5.89255
5.82525
5.76411
5.71156
5.66806
5.63355
5.60512
5.58196
5.564
5.55095
5.54219
5.53704
5.5348
5.53483
5.6878
5.69382
5.71548
5.75751
5.81645
5.84693
5.84806
5.84042
5.82494
5.80418
5.78105
5.75829
5.7378
5.72064
5.70665
5.6918
5.6755
5.66044
5.64778
5.6377
5.63002
5.62442
5.6205
958.845
905.676
863.855
844.369
830.822
789.437
745.006
670.621
776.158
518.579
399.983
471.927
351.103
122.786
84.2589
197.672
41.1674
41.3071
41.3246
41.1461
41.3856
41.3234
41.0829
40.7793
366.621
40.731
41.1177
41.1272
890.984
869.408
198.494
127.98
974.468
963.07
945.246
942.567
9.48451
384
871.484
963.394
5.06555
5.00279
5.01693
6.71802
4.96303
4.90775
4.88002
4.89726
4.95961
4.91666
4.87486
4.83596
4.92553
4.89268
4.86249
4.83441
4.8851
4.86088
4.83799
4.81687
4.83671
4.82171
4.80799
4.79546
4.78129
4.77611
4.77196
4.76878
4.72001
4.72515
4.73079
4.73687
4.65532
4.67101
4.68647
4.70174
4.59111
4.61717
4.64211
4.6661
4.53252
4.56807
4.60159
4.6334
4.48489
4.52823
4.56881
4.60704
4.45241
4.50125
4.5469
4.58982
4.43709
4.48903
4.53768
4.58346
4.43886
4.49181
4.54161
4.58861
4.45636
4.50873
4.55819
4.60502
4.48769
4.53832
4.58633
4.63192
4.53091
4.57899
4.62473
4.66829
4.58425
4.62919
4.67206
4.713
4.64613
4.68749
4.72707
4.76494
4.71516
4.75262
4.78857
4.82307
4.79004
4.82336
4.85546
4.88637
4.86952
4.89858
4.9267
4.95388
4.95235
4.97713
5.00123
5.02464
5.03728
5.05785
5.07798
5.09767
5.1231
5.13963
5.15595
5.17203
5.20878
5.22153
5.23427
5.24693
5.29359
5.30291
5.31236
5.32187
5.37687
5.38313
5.38961
5.39623
5.45751
5.46103
5.46481
5.46878
5.53606
5.53716
5.53854
5.54016
5.61856
5.61756
5.61678
5.61619
837.907
797.185
793.833
845.084
762.819
329.075
88.8589
60.0735
49.5595
45.7381
43.8908
43.0496
42.8438
43.1324
44.0799
46.797
57.86
116.285
259.671
746.361
822.961
828.252
846.692
816.233
493.04
101.814
65.4775
46.6343
44.4263
43.0506
42.7368
42.842
43.2302
44.0887
46.1824
51.0012
155.077
279.78
638.083
697.566
782.661
828.685
814.864
541.767
151.578
68.4522
43.1656
43.0639
42.3295
42.4292
42.5759
43.0639
44.1108
46.6889
62.9213
214.623
303.529
484.408
719.382
746.071
671.394
673.901
306.932
157.531
60.4491
41.0649
41.6527
41.2803
41.4755
43.1567
43.2713
51.1865
101.376
200.399
257.46
326.52
40.8702
41.2744
61.2076
99.8906
129.444
83.7218
76.8732
42.6055
40.1879
40.4231
40.3058
40.5171
41.7941
93.9257
192.214
239.538
246.949
268.705
267.507
40.5454
40.5845
40.3593
39.8785
40.4487
40.0719
38.5667
38.404
39.6255
39.5047
39.4638
40.0888
142.858
260.403
254.686
252.392
255.553
240.839
134.49
41.0765
40.7018
40.5021
40.5257
40.3679
40.0255
39.7555
39.6747
39.5078
39.0373
39.0764
110.993
281.667
273.619
270.258
265.619
171.533
9.2252
92.833
95.682
40.7449
41.0226
41.1933
41.0761
41.0037
40.9225
40.6961
39.9048
38.9529
39.4183
281.975
292.073
284.581
199.884
58.9686
6.39158
5.09349
46.4999
717.347
220.079
91.5879
42.2803
43.3999
42.5319
41.9103
41.4568
40.3915
39.3596
114.387
290.253
289.05
64.8922
6.71255
6.63196
6.36043
5.88235
6.45249
964.911
946.042
753.066
120.635
44.743
46.7966
44.2019
42.0422
41.0543
40.1349
136.979
281.75
26.1159
6.86781
6.99793
6.71214
6.42945
6.30085
6.59019
426.976
986.592
1003.35
959.669
60.287
49.1919
48.613
45.6575
41.7725
61.2218
236.379
113.473
7.78353
6.88754
6.8358
6.61498
6.41707
6.45792
6.65112
4.94052
68.2911
908.815
1097.29
825.008
47.8635
46.741
43.3627
42.6201
219.264
245.032
85.2841
6.89833
6.66401
6.62415
6.50137
6.38774
6.47334
6.88858
4.78676
4.85014
11.3794
960.498
1192.78
613.475
44.5373
44.1863
75.8202
503.469
248.044
8.88248
6.45542
6.4424
6.43193
6.40974
6.3624
6.52278
7.04732
4.78927
4.73423
4.79538
24.4738
956.262
1102.36
327.491
286.736
783.334
528.052
36.8791
6.23833
6.17804
6.2506
6.26553
6.38544
6.52984
6.49887
6.92155
4.78404
4.74347
4.71201
4.73166
22.4969
852.621
950.237
955.92
860.503
115.122
5.86067
5.91041
6.02051
6.08937
6.11961
6.26162
6.46527
6.40979
6.79322
4.77674
4.75624
4.73986
4.73731
4.72549
4.71317
301.141
231.907
5.4564
5.3526
5.55986
5.74438
5.88471
5.9559
5.9928
6.03365
6.35544
6.43706
6.24043
4.7651
4.76602
4.77394
4.78486
4.8063
4.89789
4.98
5.09721
5.24815
5.34955
5.5632
5.70077
5.79142
5.85247
5.88889
5.90571
6.09415
6.96534
6.00376
4.74789
4.7673
4.79195
4.82195
4.86616
4.93088
5.01653
5.15289
5.29538
5.39401
5.52696
5.63532
5.71386
5.76835
5.8026
5.82264
5.8923
6.92344
5.92967
4.72721
4.76413
4.804
4.84969
4.90913
4.98248
5.06891
5.17304
5.28418
5.3882
5.49463
5.58295
5.64936
5.69773
5.73027
5.75184
5.76904
6.89226
5.8706
4.70499
4.75745
4.8105
4.86722
4.93146
5.00447
5.08883
5.18399
5.2819
5.37615
5.46418
5.53707
5.59319
5.63599
5.66783
5.69253
5.69674
6.78199
5.7815
4.68419
4.7501
4.81405
4.87916
4.9482
5.02235
5.10257
5.18805
5.27519
5.35901
5.4333
5.49196
5.53692
5.57668
5.61134
5.64319
5.66359
5.71055
5.7046
4.6676
4.74438
4.81683
4.88778
4.95946
5.0332
5.10971
5.18828
5.26669
5.34027
5.39896
5.44193
5.47737
5.5163
5.55812
5.60081
5.64239
5.65773
5.67774
4.65757
4.7424
4.82094
4.89584
4.96909
5.04193
5.11481
5.18741
5.25908
5.32034
5.36405
5.39277
5.42072
5.46167
5.51076
5.56693
5.63578
5.65822
5.67112
4.65573
4.74573
4.82811
4.90525
4.979
5.05046
5.12
5.18782
5.25335
5.30455
5.33734
5.35859
5.37912
5.42313
5.4788
5.54528
5.6496
5.71536
5.66824
4.66291
4.75541
4.83955
4.91746
4.99081
5.06058
5.12718
5.19118
5.25257
5.29926
5.32922
5.34741
5.37082
5.41444
5.4746
5.54716
5.70523
5.72406
5.654
4.67926
4.77192
4.856
4.93337
5.00548
5.07328
5.13726
5.1981
5.25731
5.30718
5.33866
5.36285
5.39151
5.43638
5.49625
5.58781
5.74514
5.69353
5.6247
4.70443
4.79531
4.87777
4.95341
5.02351
5.08897
5.15035
5.20834
5.26485
5.33276
5.36284
5.38936
5.43284
5.49189
5.52807
5.58038
5.68644
5.5912
5.60472
4.73777
4.82531
4.90484
4.97773
5.04508
5.10773
5.16624
5.2212
5.27314
5.34137
5.43375
5.44927
5.53639
5.60283
5.63229
5.64344
5.56594
5.5759
5.5856
4.77849
4.86144
4.93699
5.00625
5.0702
5.12956
5.18484
5.23648
5.28478
5.33178
5.44309
5.53228
5.56885
5.60327
5.63216
5.59711
5.55129
5.56123
5.56902
4.82572
4.90313
4.97386
5.03882
5.09882
5.15447
5.20619
5.25432
5.29906
5.34026
5.37886
5.47951
5.54792
5.54277
5.52228
5.52409
5.54011
5.55004
5.55658
4.8786
4.94977
5.01504
5.07519
5.13081
5.18241
5.23032
5.27482
5.3161
5.35405
5.38873
5.42003
5.44918
5.47616
5.49987
5.5196
5.53384
5.54293
5.54839
4.93629
5.00072
5.06011
5.11503
5.16596
5.21325
5.25716
5.29792
5.3357
5.37042
5.40227
5.4311
5.45736
5.48116
5.50179
5.51896
5.53144
5.53965
5.54414
4.99797
5.05533
5.10853
5.15796
5.20396
5.24674
5.2865
5.32343
5.35762
5.38906
5.41791
5.44399
5.46744
5.48846
5.50651
5.52147
5.53246
5.53989
5.54347
5.0628
5.11294
5.15978
5.20354
5.24445
5.28258
5.31809
5.35109
5.38165
5.40977
5.43554
5.45873
5.47963
5.49805
5.51384
5.5269
5.53647
5.54303
5.54618
5.12994
5.17285
5.21326
5.25129
5.28702
5.32044
5.35165
5.3807
5.40762
5.4324
5.4551
5.4754
5.4938
5.50981
5.52354
5.53485
5.54305
5.54869
5.5517
5.19857
5.23437
5.26843
5.30075
5.33131
5.36001
5.38692
5.41202
5.43531
5.45675
5.47646
5.49378
5.50976
5.52349
5.53528
5.54491
5.55187
5.55668
5.55939
5.26803
5.29699
5.32486
5.35158
5.37703
5.40106
5.4237
5.44488
5.46453
5.48263
5.49923
5.51393
5.52741
5.53891
5.54883
5.55679
5.56278
5.56674
5.56901
5.3379
5.36036
5.38229
5.40356
5.424
5.44344
5.46184
5.4791
5.49513
5.50993
5.52347
5.5355
5.54655
5.5559
5.564
5.57043
5.57537
5.57857
5.5804
5.40756
5.42386
5.44009
5.45609
5.47163
5.48655
5.50075
5.51411
5.52657
5.5381
5.54864
5.55811
5.56665
5.57398
5.58027
5.58528
5.58918
5.59164
5.59303
5.47576
5.48626
5.49709
5.50802
5.51883
5.52935
5.53946
5.54904
5.55803
5.56637
5.57403
5.58093
5.5871
5.59244
5.59699
5.60064
5.60356
5.60523
5.60633
5.54322
5.54835
5.55404
5.5601
5.56633
5.57257
5.57868
5.58456
5.59013
5.59533
5.60012
5.60446
5.60832
5.61166
5.6145
5.61676
5.61861
5.61973
5.62057
5.61549
5.61529
5.61575
5.6168
5.61827
5.62002
5.6219
5.62383
5.62574
5.62757
5.62928
5.63084
5.6322
5.63336
5.63433
5.63509
5.63576
5.63619
5.63695
)
;

boundaryField
{
    leftWall
    {
        type            fixedFluxPressure;
        gradient        uniform 0;
        value           nonuniform List<scalar> 
50
(
957.376
957.667
958.541
958.921
958.624
958.294
958.159
958.181
929.671
669.868
639.07
699.555
642.9
618.391
721.182
751.945
784.714
833.374
882.531
923.033
957.318
1008.27
1074.26
1154.06
1214.1
761.871
11.9524
129.387
766.076
923.556
962.597
1002.5
1006.39
270.225
101.989
329.33
351.76
337.711
30.8923
4.55798
3.35799
3.54361
3.66351
4.02527
4.45233
4.88745
5.22804
5.45039
5.59144
5.6878
)
;
    }
    rightWall
    {
        type            fixedFluxPressure;
        gradient        uniform 0;
        value           nonuniform List<scalar> 
50
(
451.819
438.929
440.178
446.925
459.132
459.052
261.444
227.412
259.671
279.78
303.529
326.52
267.507
134.49
92.833
46.4999
6.45249
6.59019
6.65112
6.88858
7.04732
6.92155
6.79322
6.24043
6.00376
5.92967
5.8706
5.7815
5.7046
5.67774
5.67112
5.66824
5.654
5.6247
5.60472
5.5856
5.56902
5.55658
5.54839
5.54414
5.54347
5.54618
5.5517
5.55939
5.56901
5.5804
5.59303
5.60633
5.62057
5.63695
)
;
    }
    lowerWall
    {
        type            fixedFluxPressure;
        gradient        uniform 0;
        value           nonuniform List<scalar> 
62
(
957.376
954.773
954.287
955.073
956.269
957.79
954.454
945.273
933.056
919.103
905.09
894.329
889.2
890.52
899.942
919.24
946.029
982.498
1026.85
1072.19
1110.96
1133.71
1136.37
1136.37
1134.81
1132.48
1129.77
1125.35
1119.36
1116.19
1097.43
958.845
905.676
863.855
844.369
753.618
757.477
764.174
770.182
776.888
784.519
797.661
811.687
753.618
737.274
708.989
696.339
580.108
468.653
425.037
428.174
408.696
370.37
340.712
322.625
318.913
273.47
247.273
329.256
391.974
433.428
451.819
)
;
    }
    atmosphere
    {
        type            prghTotalPressure;
        rho             rho;
        psi             none;
        gamma           1;
        p0              uniform 0;
        value           nonuniform List<scalar> 
46
(
5.72911
5.72911
5.72951
5.7327
5.7465
5.74456
5.73334
5.72991
5.72917
5.72905
5.72904
5.72904
5.72904
5.72904
5.72878
5.72366
5.71493
5.70513
5.69562
5.68705
5.67965
5.6734
5.66814
5.66484
5.66289
5.66106
5.65933
5.65668
5.65361
5.65126
5.64961
5.64848
5.64773
5.64724
5.64693
5.64675
5.64667
5.64662
5.64658
5.64651
5.6464
5.64629
5.64615
5.64611
5.64603
5.64705
)
;
        rho             rho;
    }
    defaultFaces
    {
        type            empty;
    }
}


// ************************************************************************* //
