/*--------------------------------*- C++ -*----------------------------------*\
  =========                 |
  \\      /  F ield         | OpenFOAM: The Open Source CFD Toolbox
   \\    /   O peration     | Website:  https://openfoam.org
    \\  /    A nd           | Version:  13
     \\/     M anipulation  |
\*---------------------------------------------------------------------------*/
FoamFile
{
    format      ascii;
    class       surfaceScalarField;
    location    "1";
    object      phi;
}
// * * * * * * * * * * * * * * * * * * * * * * * * * * * * * * * * * * * * * //

dimensions      [0 3 -1 0 0 0 0];

internalField   nonuniform List<scalar> 
4432
(
3.32816e-06
-3.32816e-06
3.40458e-06
-7.6412e-08
-3.80718e-07
3.78529e-06
-4.51458e-06
4.13387e-06
-4.80511e-06
2.90532e-07
-1.45434e-06
-3.35078e-06
1.57606e-06
-3.0304e-06
2.45423e-06
-8.78164e-07
1.99597e-06
4.58254e-07
5.21713e-07
1.47426e-06
-1.72211e-06
2.24382e-06
-4.07842e-06
2.3563e-06
-5.33109e-06
1.25268e-06
-6.27864e-06
9.47534e-07
-1.10628e-05
4.78421e-06
-2.10517e-05
9.98886e-06
-3.08813e-05
9.82962e-06
-3.39038e-05
3.02246e-06
-3.04841e-05
-3.41962e-06
-2.44275e-05
-6.05662e-06
-1.64824e-05
-7.94509e-06
-7.01031e-06
-9.47211e-06
-7.0103e-06
-1.78274e-06
-1.54542e-06
-4.46271e-06
2.60356e-06
-7.23239e-06
6.55497e-06
-8.2786e-06
5.18008e-06
-6.33361e-06
-1.65446e-06
-2.37585e-06
-7.30854e-06
1.01808e-06
-6.42433e-06
2.17931e-06
-2.03939e-06
1.65214e-06
9.85419e-07
5.34326e-08
3.07297e-06
-2.24803e-06
4.54529e-06
-5.08921e-06
5.19747e-06
-8.87662e-06
5.0401e-06
-1.41393e-05
6.21025e-06
-2.11849e-05
1.18298e-05
-2.7688e-05
1.6492e-05
-2.97005e-05
1.18421e-05
-2.70569e-05
3.78844e-07
-2.34231e-05
-7.05339e-06
-1.94578e-05
-1.0022e-05
-1.33331e-05
-1.40698e-05
-5.61831e-06
-1.71869e-05
-1.26286e-05
-4.22814e-06
2.68273e-06
-7.84715e-06
6.22257e-06
-9.58624e-06
8.29407e-06
-9.34815e-06
4.94198e-06
-7.16402e-06
-3.83859e-06
-3.1524e-06
-1.13202e-05
3.48119e-07
-9.92486e-06
1.76403e-06
-3.4553e-06
1.60684e-06
1.14261e-06
5.37298e-07
4.14251e-06
-9.32137e-07
6.01472e-06
-3.03328e-06
7.2986e-06
-6.74788e-06
8.75471e-06
-1.23052e-05
1.17675e-05
-1.76288e-05
1.71534e-05
-2.00914e-05
1.89546e-05
-1.93455e-05
1.10962e-05
-1.86253e-05
-3.41313e-07
-1.84474e-05
-7.23132e-06
-1.65677e-05
-1.19016e-05
-1.19807e-05
-1.86569e-05
-5.05511e-06
-2.41124e-05
-1.76837e-05
-4.10242e-06
6.78515e-06
-7.24731e-06
9.36745e-06
-8.4671e-06
9.51386e-06
-8.2412e-06
4.71608e-06
-6.19676e-06
-5.88304e-06
-2.62933e-06
-1.48876e-05
1.26758e-07
-1.26809e-05
1.24382e-06
-4.57236e-06
1.12814e-06
1.25828e-06
2.5446e-07
5.01619e-06
-8.06544e-07
7.07572e-06
-2.12515e-06
8.6172e-06
-4.20595e-06
1.08355e-05
-7.01908e-06
1.45807e-05
-9.18591e-06
1.93203e-05
-1.00412e-05
1.98098e-05
-1.12483e-05
1.23033e-05
-1.46434e-05
3.0538e-06
-1.80579e-05
-3.81681e-06
-1.76803e-05
-1.22792e-05
-1.29926e-05
-2.33446e-05
-5.34611e-06
-3.17589e-05
-2.30298e-05
-2.57726e-06
9.3624e-06
-4.59067e-06
1.13809e-05
-5.37189e-06
1.02951e-05
-5.03876e-06
4.38295e-06
-2.87861e-06
-8.04319e-06
-2.59238e-07
-1.7507e-05
9.41653e-07
-1.38818e-05
1.06199e-06
-4.6927e-06
5.21171e-07
1.79909e-06
-4.32367e-07
5.96973e-06
-1.50811e-06
8.15148e-06
-2.4596e-06
9.56869e-06
-3.45041e-06
1.18263e-05
-4.06701e-06
1.51973e-05
-4.12065e-06
1.93739e-05
-4.91721e-06
2.06064e-05
-8.74597e-06
1.61321e-05
-1.50793e-05
9.38711e-06
-1.96663e-05
7.70268e-07
-1.93957e-05
-1.25499e-05
-1.40102e-05
-2.873e-05
-5.84211e-06
-3.9927e-05
-2.88719e-05
-4.68761e-07
9.83116e-06
-9.4937e-07
1.18615e-05
-1.16011e-06
1.05058e-05
-1.69983e-07
3.39281e-06
2.21923e-06
-1.04324e-05
3.59266e-06
-1.88804e-05
3.19453e-06
-1.34837e-05
1.96542e-06
-3.46358e-06
7.60826e-07
3.00369e-06
-5.22252e-07
7.25282e-06
-1.78534e-06
9.41457e-06
-2.67223e-06
1.04556e-05
-3.45186e-06
1.2606e-05
-3.56253e-06
1.53079e-05
-3.32028e-06
1.91317e-05
-4.54313e-06
2.18292e-05
-9.3228e-06
2.09117e-05
-1.62122e-05
1.62765e-05
-2.09359e-05
5.49402e-06
-2.04832e-05
-1.30026e-05
-1.50994e-05
-3.41139e-05
-7.32152e-06
-4.77048e-05
-3.61934e-05
1.93035e-06
7.9008e-06
3.08598e-06
1.07058e-05
3.71252e-06
9.87925e-06
5.56359e-06
1.54174e-06
7.77566e-06
-1.26445e-05
8.23573e-06
-1.93405e-05
6.83727e-06
-1.20853e-05
4.71312e-06
-1.33943e-06
2.8284e-06
4.8884e-06
1.03641e-06
9.04479e-06
-4.11133e-07
1.08621e-05
-1.23608e-06
1.12805e-05
-1.94441e-06
1.33143e-05
-1.94641e-06
1.53099e-05
-2.1283e-06
1.93136e-05
-4.0119e-06
2.37128e-05
-9.63914e-06
2.6539e-05
-1.73705e-05
2.40079e-05
-2.2749e-05
1.08725e-05
-2.24763e-05
-1.32754e-05
-1.7218e-05
-3.93721e-05
-9.10487e-06
-5.5818e-05
-4.52983e-05
4.02953e-06
3.87127e-06
6.87629e-06
7.85907e-06
8.779e-06
7.97654e-06
1.11801e-05
-8.59392e-07
1.24094e-05
-1.38738e-05
1.16563e-05
-1.85873e-05
9.94178e-06
-1.03708e-05
7.87319e-06
7.29153e-07
6.10604e-06
6.65555e-06
4.00196e-06
1.11489e-05
2.46466e-06
1.23994e-05
1.83645e-06
1.19087e-05
1.28219e-06
1.38686e-05
1.25178e-06
1.53403e-05
3.6229e-07
2.02031e-05
-2.45344e-06
2.65286e-05
-9.35554e-06
3.34411e-05
-1.94645e-05
3.41169e-05
-2.72084e-05
1.86164e-05
-2.71233e-05
-1.33605e-05
-1.96089e-05
-4.68865e-05
-8.11366e-06
-6.73132e-05
-5.3412e-05
7.98739e-07
-7.98739e-07
-8.97412e-06
9.77285e-06
-1.07658e-06
-7.89754e-06
2.41509e-05
-2.52275e-05
4.07476e-05
-1.65967e-05
4.18437e-05
-1.0961e-06
3.14895e-05
1.03542e-05
1.95651e-05
1.19244e-05
8.34646e-06
1.12187e-05
-3.86368e-06
1.22101e-05
-1.35227e-05
9.65903e-06
-1.23541e-05
-1.16858e-06
1.87811e-06
-1.42322e-05
1.7824e-05
-1.59459e-05
8.75716e-06
9.06682e-06
-1.42022e-05
2.29593e-05
-2.16226e-05
7.42043e-06
-1.07479e-05
-1.08747e-05
-1.07479e-05
-7.05037e-06
6.25164e-06
-9.27595e-06
1.19984e-05
3.36221e-06
-2.05357e-05
2.64718e-05
-4.8337e-05
3.73669e-05
-2.74918e-05
3.76942e-05
-1.4234e-06
3.10902e-05
1.69582e-05
1.62963e-05
2.67182e-05
-3.60308e-06
3.11181e-05
-2.37207e-05
3.23277e-05
-3.74783e-05
2.34166e-05
-3.89235e-05
2.76625e-07
-2.54149e-05
-2.77407e-05
-7.95896e-06
-3.34019e-05
6.50235e-07
4.57638e-07
-9.89905e-06
3.35086e-05
-1.54365e-05
1.29579e-05
-7.61053e-06
-1.87006e-05
-1.83584e-05
-8.12749e-06
1.43791e-05
-8.84839e-06
1.27193e-05
2.54859e-06
-3.19327e-05
2.01506e-05
-6.5939e-05
2.56827e-05
-3.30239e-05
2.18591e-05
2.40018e-06
1.37583e-05
2.5059e-05
-3.80249e-06
4.4279e-05
-2.66198e-05
5.39353e-05
-4.75353e-05
5.32433e-05
-6.33604e-05
3.92417e-05
-6.47456e-05
1.66174e-06
-5.17928e-05
-4.06935e-05
-2.98239e-05
-5.53707e-05
-1.43429e-05
-1.50233e-05
-8.51467e-06
2.76803e-05
-9.839e-06
1.42822e-05
-6.0745e-06
-2.24652e-05
-2.44329e-05
-6.55404e-06
2.09332e-05
-8.38345e-06
1.45487e-05
-3.01393e-06
-3.73022e-05
3.20988e-06
-7.21628e-05
4.6513e-06
-3.44653e-05
-2.51361e-06
9.5651e-06
-1.51507e-05
3.76961e-05
-3.17559e-05
6.08843e-05
-5.27902e-05
7.49696e-05
-7.37748e-05
7.42279e-05
-8.92522e-05
5.47192e-05
-9.42992e-05
6.70872e-06
-7.59846e-05
-5.90081e-05
-4.95752e-05
-8.17801e-05
-3.14175e-05
-3.3181e-05
-1.65777e-05
1.28405e-05
-1.28494e-05
1.0554e-05
-1.02906e-05
-2.50241e-05
-3.47235e-05
-4.3766e-06
2.53098e-05
-7.82824e-06
1.80004e-05
-9.63257e-06
-3.54979e-05
-1.38249e-05
-6.79705e-05
-2.1459e-05
-2.68312e-05
-3.21041e-05
2.02103e-05
-4.29395e-05
4.85315e-05
-5.63338e-05
7.42786e-05
-7.44782e-05
9.3114e-05
-9.69204e-05
9.66701e-05
-0.000125976
8.37751e-05
-0.000140339
2.10716e-05
-0.000107285
-9.20624e-05
-7.11052e-05
-0.00011796
-4.68409e-05
-5.74452e-05
-3.25005e-05
-1.49997e-06
-2.23491e-05
4.02574e-07
-1.27895e-05
-3.45837e-05
-4.7513e-05
-1.209e-06
2.65188e-05
-5.1266e-06
2.1918e-05
-1.3372e-05
-2.72525e-05
-2.60128e-05
-5.53297e-05
-4.00273e-05
-1.28167e-05
-5.21405e-05
3.23234e-05
-6.28978e-05
5.92888e-05
-7.5689e-05
8.70697e-05
-9.57287e-05
0.000113154
-0.000132202
0.000133143
-0.000175098
0.000126671
-0.000188448
3.44219e-05
-0.000162881
-0.00011763
-0.000115805
-0.000165036
-6.73061e-05
-0.000105944
-4.24157e-05
-2.63903e-05
-3.88931e-05
-3.12003e-06
-2.65912e-05
-4.68857e-05
-7.41042e-05
4.72679e-06
2.1792e-05
1.71614e-06
2.49286e-05
-9.34146e-06
-1.61949e-05
-2.85457e-05
-3.61254e-05
-4.79189e-05
6.55646e-06
-6.43234e-05
4.8728e-05
-7.77727e-05
7.27381e-05
-9.36588e-05
0.000102956
-0.000126043
0.000145538
-0.00016998
0.00017708
-0.000211764
0.000168455
-0.000227824
5.0482e-05
-0.000234126
-0.000111328
-0.000209928
-0.000189234
-0.000154615
-0.000161257
-0.000103763
-7.72423e-05
-9.93053e-05
-7.57772e-06
-6.88162e-05
-7.73748e-05
-0.00014292
9.25371e-06
1.25383e-05
1.14475e-05
2.27349e-05
2.17248e-06
-6.91989e-06
-2.07892e-05
-1.31638e-05
-4.30601e-05
2.88274e-05
-6.50615e-05
7.07293e-05
-8.16847e-05
8.93613e-05
-0.000110474
0.000131746
-0.000144934
0.000179998
-0.000183543
0.000215689
-0.00020253
0.000187442
-0.000210214
5.8165e-05
-0.000245217
-7.63244e-05
-0.000289173
-0.000145278
-0.000301343
-0.000149088
-0.000270031
-0.000108554
-0.000198222
-7.93865e-05
-8.19697e-05
-0.000193627
-0.00022489
1.83969e-05
-1.45257e-05
2.81848e-05
-1.92877e-06
3.26691e-05
3.49217e-06
3.59656e-05
-4.15585e-06
3.39215e-05
-1.18297e-05
2.66095e-05
-1.12753e-05
1.74547e-05
-1.21597e-06
5.68894e-06
1.24949e-05
-5.20546e-06
1.75499e-05
-9.17423e-06
1.51176e-05
-6.18224e-06
9.40744e-06
-4.17809e-06
9.90458e-06
-8.31717e-06
1.80077e-05
-1.17313e-05
1.87544e-05
-1.86356e-05
2.71074e-05
-3.61233e-05
4.40162e-05
-6.75516e-05
6.48694e-05
-9.42486e-05
6.08139e-05
-9.93541e-05
2.37219e-05
-8.37194e-05
-2.89952e-05
-5.06788e-05
-7.99271e-05
-1.43378e-05
-0.000103654
-8.6251e-05
1.85012e-05
3.04943e-05
-4.502e-05
4.63573e-05
-1.77917e-05
5.12018e-05
-1.35238e-06
4.96042e-05
-2.5582e-06
3.50804e-05
2.69413e-06
1.50516e-05
8.75356e-06
-1.09201e-05
2.47558e-05
-3.82505e-05
3.98253e-05
-6.17958e-05
4.10952e-05
-7.54903e-05
2.88122e-05
-7.8897e-05
1.28141e-05
-8.35967e-05
1.46043e-05
-0.000102462
3.68732e-05
-0.000129237
4.55295e-05
-0.000151636
4.9506e-05
-0.000162263
5.46435e-05
-0.00016071
6.33166e-05
-0.000158124
5.82278e-05
-0.000149742
1.53393e-05
-0.000117697
-6.10398e-05
-7.06693e-05
-0.000126955
-3.94418e-05
-0.000134882
-0.000104645
-2.10476e-05
2.65593e-05
-7.15793e-05
4.33229e-05
-3.45553e-05
4.58873e-05
-3.91673e-06
3.56861e-05
7.64297e-06
7.6578e-06
3.07224e-05
-3.59322e-05
5.23435e-05
-9.17627e-05
8.05862e-05
-0.000136387
8.44494e-05
-0.000165068
6.97766e-05
-0.000178684
4.24277e-05
-0.00018893
2.30602e-05
-0.000202832
2.85064e-05
-0.000208982
4.30232e-05
-0.000204433
4.09801e-05
-0.000189347
3.44209e-05
-0.000168347
3.36433e-05
-0.000153425
4.83944e-05
-0.00017002
7.48225e-05
-0.00019223
3.75493e-05
-0.000151823
-0.000101447
-0.0001111
-0.000167678
-9.89108e-05
-0.000147071
-0.000106761
-9.67953e-05
-8.00133e-06
-6.3578e-05
-1.30891e-05
-2.94676e-05
-6.11462e-06
-1.08912e-05
-5.95456e-06
7.48292e-06
-4.36419e-05
6.84098e-05
-0.000112281
0.000120982
-0.000180617
0.000148923
-0.00025071
0.000154543
-0.000293262
0.000112328
-0.000285951
3.51174e-05
-0.000262677
-2.14625e-07
-0.000241787
7.61696e-06
-0.00022063
2.18663e-05
-0.000195842
1.61924e-05
-0.00016611
4.68823e-06
-0.000141297
8.83027e-06
-0.000136612
4.371e-05
-0.000168666
0.000106876
-0.000204741
7.36244e-05
-0.000170464
-0.000135724
-0.000152713
-0.000185429
-0.000153496
-0.000146288
-9.79679e-05
-0.000162289
-2.70901e-05
-3.64879e-05
-3.19381e-05
-2.46196e-05
-3.31778e-05
-9.65147e-06
-6.98527e-05
4.41577e-05
-0.000126226
0.000124783
-0.000183004
0.00017776
-0.000254053
0.000219971
-0.000321994
0.000222484
-0.000347199
0.000137533
-0.00034587
3.37882e-05
-0.000317942
-2.81424e-05
-0.000277779
-3.25459e-05
-0.000236618
-1.92949e-05
-0.000186012
-3.44135e-05
-0.000135332
-4.59915e-05
-9.86286e-05
-2.78735e-05
-8.94251e-05
3.45066e-05
-0.000116814
0.000134264
-0.000158656
0.000115466
-0.000174096
-0.000120283
-0.000174273
-0.000185251
-0.00017742
-0.000143141
-8.22165e-05
-0.000193172
-4.46247e-05
8.13681e-06
-0.000117606
4.83613e-05
-0.000160213
3.29558e-05
-0.000184905
6.88501e-05
-0.00021796
0.000157839
-0.000239408
0.000199208
-0.000256067
0.000236631
-0.000272288
0.000238705
-0.000288681
0.000153926
-0.000282442
2.75499e-05
-0.000258283
-5.23021e-05
-0.000260624
-3.0205e-05
-0.000249722
-3.01966e-05
-0.000217703
-6.64324e-05
-0.000178801
-8.48935e-05
-0.000150265
-5.641e-05
-0.000142906
2.71477e-05
-0.000131734
0.000123092
-0.00013176
0.000115492
-0.000169261
-8.27827e-05
-0.000175788
-0.000178724
-0.000171837
-0.000147092
-8.213e-05
-0.000171923
-3.74668e-05
4.56035e-05
-0.0001888
0.000199694
-0.000218317
6.24735e-05
-0.00020583
5.63631e-05
-0.000198027
0.000150035
-0.000200042
0.000201223
-0.000172751
0.000209339
-0.000131621
0.000197574
-0.00014748
0.000169785
-0.000214559
9.46287e-05
-0.000248408
-1.84524e-05
-0.000243321
-3.52919e-05
-0.000228172
-4.53462e-05
-0.000225105
-6.9499e-05
-0.000232426
-7.75735e-05
-0.000235582
-5.32531e-05
-0.000232264
2.38292e-05
-0.000194608
8.54369e-05
-0.00015345
7.43332e-05
-0.00016044
-7.57926e-05
-0.000174254
-0.000164909
-0.000164996
-0.000156351
-0.000104185
-0.000142941
-6.04488e-06
5.16484e-05
-0.000133946
0.000327596
-0.000216076
0.000144603
-0.000228793
6.90797e-05
-0.000180372
0.000101614
-0.000109201
0.000130052
-4.83725e-05
0.000148511
-1.35472e-05
0.000162749
-1.72755e-05
0.000173513
-9.6023e-05
0.000173376
-0.000180986
6.65104e-05
-0.000209565
-6.71213e-06
-0.000217977
-3.69347e-05
-0.000232367
-5.51089e-05
-0.00024427
-6.56703e-05
-0.000244797
-5.27261e-05
-0.000215401
-5.56692e-06
-0.000170761
4.07972e-05
-0.000124455
2.80274e-05
-0.000138119
-6.21281e-05
-0.000170151
-0.000132878
-0.000164511
-0.000161991
-0.00013489
-0.000133806
-6.90559e-06
5.8554e-05
-9.44599e-05
0.00041515
-0.000164455
0.000214598
-0.00019811
0.000102735
-0.000172778
7.62821e-05
-0.000114717
7.19909e-05
-5.63856e-05
9.01799e-05
-2.37735e-05
0.000130137
-2.90996e-05
0.00017884
-7.93721e-05
0.000223648
-0.000147712
0.00013485
-0.000174822
2.0398e-05
-0.00018022
-3.1536e-05
-0.000186448
-4.88807e-05
-0.00019317
-5.89483e-05
-0.0001905
-5.53961e-05
-0.000161992
-3.40749e-05
-0.000110175
-1.10196e-05
-7.21263e-05
-1.00216e-05
-8.92176e-05
-4.50367e-05
-0.000128795
-9.33006e-05
-0.000167766
-0.000123019
-0.000151337
-0.000151319
-1.11395e-05
6.96935e-05
-6.03624e-05
0.000464373
-0.000113778
0.000268015
-0.000141465
0.000130422
-0.00014507
7.98871e-05
-0.000122551
4.94722e-05
-9.77434e-05
6.53722e-05
-8.58323e-05
0.000118226
-0.000108061
0.000201068
-0.000136362
0.00025195
-0.000150655
0.000149143
-0.000144495
1.42363e-05
-0.000140925
-3.51064e-05
-0.000138381
-5.14242e-05
-0.000137702
-5.96274e-05
-0.000134652
-5.84463e-05
-0.000119346
-4.93811e-05
-8.92424e-05
-4.11233e-05
-5.74437e-05
-4.18203e-05
-4.71882e-05
-5.52923e-05
-6.90734e-05
-7.14155e-05
-0.000101259
-9.08335e-05
-0.000107899
-0.000144698
-1.32259e-05
8.29193e-05
-1.4354e-05
0.000465501
-5.62662e-05
0.000309927
-9.31436e-05
0.000167299
-0.000110258
9.70011e-05
-0.000118691
5.79055e-05
-0.000132134
7.88157e-05
-0.000163749
0.00014984
-0.000201765
0.000239084
-0.000191042
0.000241226
-0.000148101
0.000106203
-0.000125969
-7.89505e-06
-0.000120561
-4.05141e-05
-0.000116007
-5.59785e-05
-0.000111026
-6.46081e-05
-0.000103859
-6.56132e-05
-9.11876e-05
-6.20524e-05
-7.33942e-05
-5.89165e-05
-5.57132e-05
-5.95012e-05
-4.50868e-05
-6.59188e-05
-3.94145e-05
-7.70876e-05
-4.05409e-05
-8.97072e-05
-8.47725e-05
-6.36671e-05
-1.3132e-05
9.60513e-05
1.47571e-06
0.000450894
-3.6276e-05
0.000347679
-8.37869e-05
0.00021481
-0.000125439
0.000138654
-0.000172807
0.000105273
-0.000223442
0.000129451
-0.00026218
0.000188578
-0.000251681
0.000228586
-0.000191325
0.00018087
-0.000136607
5.14845e-05
-0.000126242
-1.82603e-05
-0.000123912
-4.28439e-05
-0.000117519
-6.23713e-05
-0.000107836
-7.42919e-05
-9.4916e-05
-7.85331e-05
-7.93426e-05
-7.76257e-05
-6.32404e-05
-7.50185e-05
-4.90508e-05
-7.36908e-05
-3.95616e-05
-7.5408e-05
-3.51372e-05
-8.15122e-05
-3.55118e-05
-8.93326e-05
-8.82843e-05
-3.20003e-05
-1.20454e-05
0.000108097
-1.08777e-05
0.000449726
-4.69184e-05
0.00038372
-9.6649e-05
0.000264541
-0.000150376
0.000192381
-0.000211039
0.000165936
-0.000260591
0.000179003
-0.000273214
0.000201201
-0.000234886
0.000190257
-0.000172242
0.000118226
-0.000150301
2.95428e-05
-0.00015313
-1.5431e-05
-0.000146986
-4.89877e-05
-0.000133379
-7.59779e-05
-0.00011613
-9.15408e-05
-9.77088e-05
-9.69543e-05
-7.96166e-05
-9.57177e-05
-6.27349e-05
-9.19e-05
-4.80718e-05
-8.8354e-05
-3.67527e-05
-8.67271e-05
-3.05465e-05
-8.77182e-05
-2.99032e-05
-8.99759e-05
-9.08421e-05
-2.73456e-05
-1.03684e-05
0.000118465
-2.49456e-05
0.000464303
-6.06642e-05
0.000419439
-0.000105387
0.000309263
-0.000156695
0.000243689
-0.000209966
0.000219207
-0.000244418
0.000213456
-0.000244305
0.000201089
-0.000216071
0.000162022
-0.000194618
9.67737e-05
-0.00019824
3.31646e-05
-0.000194648
-1.90227e-05
-0.000176633
-6.70024e-05
-0.000151871
-0.00010074
-0.000124792
-0.000118619
-9.98159e-05
-0.00012193
-7.91243e-05
-0.000116409
-6.25459e-05
-0.000108478
-4.92553e-05
-0.000101644
-3.90476e-05
-9.69349e-05
-3.22649e-05
-9.45011e-05
-2.88763e-05
-9.33645e-05
-9.26105e-05
-2.7108e-05
-9.74772e-06
0.000128213
-2.32092e-05
0.000477765
-6.08132e-05
0.000457043
-9.99969e-05
0.000348447
-0.000145724
0.000289417
-0.000191682
0.000265165
-0.00022333
0.000245103
-0.00023744
0.000215199
-0.000244445
0.000169027
-0.000254461
0.00010679
-0.000256237
3.49405e-05
-0.000236986
-3.82736e-05
-0.000204897
-9.90911e-05
-0.000167384
-0.000138252
-0.000129628
-0.000156376
-9.72558e-05
-0.000154302
-7.34387e-05
-0.000140226
-5.75643e-05
-0.000124353
-4.6876e-05
-0.000112333
-3.94919e-05
-0.000104319
-3.4633e-05
-9.93597e-05
-3.15887e-05
-9.64088e-05
-9.4649e-05
-2.95502e-05
-7.14846e-06
0.000135361
1.38681e-05
0.000456749
-4.5244e-05
0.000516155
-8.72547e-05
0.000390458
-0.000134136
0.000336298
-0.000183289
0.000314318
-0.00022882
0.000290634
-0.000270351
0.00025673
-0.000302753
0.00020143
-0.000313062
0.000117099
-0.000292754
1.46327e-05
-0.000251627
-7.94004e-05
-0.000203628
-0.000147091
-0.00015726
-0.000184619
-0.00011558
-0.000198056
-8.21444e-05
-0.000187738
-5.90253e-05
-0.000163345
-4.58197e-05
-0.000137558
-3.9077e-05
-0.000119075
-3.539e-05
-0.000108006
-3.34294e-05
-0.00010132
-3.24617e-05
-9.73765e-05
-9.51148e-05
-3.1996e-05
9.90902e-07
0.00013437
3.57956e-05
0.000421944
-3.1481e-05
0.000583431
-8.07322e-05
0.000439709
-0.000135092
0.000390657
-0.000196027
0.000375253
-0.000259976
0.000354584
-0.000314918
0.000311672
-0.000338888
0.0002254
-0.000323265
0.000101476
-0.0002768
-3.18324e-05
-0.000218294
-0.000137906
-0.000158358
-0.000207027
-0.000107895
-0.000235082
-7.00582e-05
-0.000235892
-4.57565e-05
-0.000212039
-3.13024e-05
-0.000177799
-2.63962e-05
-0.000142464
-2.66857e-05
-0.000118785
-2.79884e-05
-0.000106703
-2.93252e-05
-9.99834e-05
-3.06162e-05
-9.60856e-05
-9.38268e-05
-3.19043e-05
9.12718e-06
0.000125243
-1.32115e-05
0.000444283
-4.69992e-05
0.000617219
-9.1869e-05
0.000484578
-0.000150877
0.000449665
-0.000220897
0.000445272
-0.000289187
0.000422874
-0.000331089
0.000353575
-0.0003298
0.000224111
-0.000293173
6.48491e-05
-0.00023738
-8.7625e-05
-0.000164368
-0.000210918
-9.23952e-05
-0.000279
-3.82912e-05
-0.000289186
-5.607e-06
-0.000268577
5.20118e-06
-0.000222847
4.88423e-06
-0.000177482
-1.90362e-06
-0.000135676
-1.23663e-05
-0.000108322
-1.99741e-05
-9.9095e-05
-2.47435e-05
-9.52143e-05
-2.79166e-05
-9.29125e-05
-9.14694e-05
-3.0274e-05
-1.21451e-05
0.000137388
-7.74575e-05
0.000509595
-8.19154e-05
0.000621677
-0.000113196
0.000515859
-0.000170294
0.000506763
-0.000237772
0.000512751
-0.000292796
0.000477898
-0.000312411
0.00037319
-0.000297036
0.000208736
-0.000256335
2.41488e-05
-0.000188225
-0.000155735
-9.97646e-05
-0.000299378
-2.28461e-05
-0.000355918
2.87437e-05
-0.000340776
5.39122e-05
-0.000293745
5.39201e-05
-0.000222855
3.848e-05
-0.000162042
1.93106e-05
-0.000116506
-1.4368e-06
-8.7575e-05
-1.45245e-05
-8.60073e-05
-2.1866e-05
-8.7873e-05
-2.61807e-05
-8.8598e-05
-8.87011e-05
-2.8949e-05
-4.38919e-05
0.00018128
-0.000111113
0.000576816
-0.000101834
0.000612399
-0.00012541
0.000539435
-0.000176714
0.000558067
-0.000231057
0.000567093
-0.000265932
0.000512773
-0.000270587
0.000377845
-0.000249952
0.000188101
-0.00020211
-2.36931e-05
-0.000122487
-0.000235358
-3.65482e-05
-0.000385317
2.82264e-05
-0.000420693
6.68816e-05
-0.000379431
7.93213e-05
-0.000306185
7.2212e-05
-0.000215746
4.97697e-05
-0.000139599
2.33062e-05
-9.00429e-05
-1.32732e-06
-6.29415e-05
-1.51527e-05
-7.2182e-05
-2.23467e-05
-8.06791e-05
-2.63421e-05
-8.46027e-05
-8.63153e-05
-2.87279e-05
-3.10768e-05
0.000212357
-8.93519e-05
0.000635091
-9.02393e-05
0.000613286
-0.00011816
0.000567356
-0.000162258
0.000602165
-0.000199177
0.000604013
-0.000215084
0.000528679
-0.000210669
0.000373431
-0.000185342
0.000162773
-0.000133153
-7.58818e-05
-5.95149e-05
-0.000308997
4.40981e-06
-0.000449242
4.45644e-05
-0.000460848
6.1482e-05
-0.000396349
5.79744e-05
-0.000302677
4.42633e-05
-0.000202034
2.50192e-05
-0.000120355
-1.49569e-07
-6.48741e-05
-1.63576e-05
-4.67336e-05
-2.3073e-05
-6.54667e-05
-2.65352e-05
-7.72171e-05
-2.84601e-05
-8.26777e-05
-8.52017e-05
-2.95736e-05
-9.74107e-06
0.000222098
-3.39191e-05
0.000659269
-6.21925e-05
0.000641559
-9.50012e-05
0.000600164
-0.000131869
0.000639034
-0.000153819
0.000625962
-0.00015541
0.00053027
-0.000144449
0.000362469
-0.000118329
0.000136653
-7.10695e-05
-0.000123141
-1.77181e-05
-0.000362349
1.12527e-05
-0.000478213
2.06581e-05
-0.000470253
1.16685e-05
-0.000387359
-5.35615e-06
-0.000285653
-1.93196e-05
-0.000188071
-3.19229e-05
-0.000107752
-4.27071e-05
-5.40899e-05
-3.88683e-05
-5.05724e-05
-3.48223e-05
-6.95125e-05
-3.2715e-05
-7.93243e-05
-3.15488e-05
-8.38438e-05
-8.58612e-05
-3.08892e-05
-8.27428e-07
0.000222926
2.95034e-05
0.000628938
-2.6212e-05
0.000697275
-6.24203e-05
0.000636373
-9.38186e-05
0.000670432
-0.000106437
0.000638581
-0.000100003
0.000523836
-8.36085e-05
0.000346075
-5.7794e-05
0.000110839
-2.09462e-05
-0.000159989
-5.85914e-06
-0.000377435
-1.21182e-05
-0.000471953
-3.54164e-05
-0.000446955
-6.26057e-05
-0.00036017
-8.21243e-05
-0.000266134
-9.09329e-05
-0.000179263
-9.30072e-05
-0.000105677
-7.8593e-05
-6.85041e-05
-5.6932e-05
-7.22332e-05
-4.46379e-05
-8.18063e-05
-3.80251e-05
-8.59369e-05
-3.41674e-05
-8.77013e-05
-8.81677e-05
-3.18609e-05
2.25797e-06
0.000220668
5.37957e-05
0.0005774
1.22393e-05
0.000738832
-2.7034e-05
0.000675646
-5.31985e-05
0.000696597
-6.01255e-05
0.000645508
-5.10228e-05
0.000514733
-3.34421e-05
0.000328494
-1.10388e-05
8.84355e-05
2.20448e-06
-0.000173232
-7.78314e-06
-0.000367448
-4.31469e-05
-0.00043659
-8.54191e-05
-0.000404683
-0.000116843
-0.000328746
-0.000134194
-0.000248783
-0.000138348
-0.000175108
-0.000120576
-0.000123449
-8.7701e-05
-0.000101379
-6.29004e-05
-9.70334e-05
-4.87935e-05
-9.59131e-05
-4.03164e-05
-9.44139e-05
-3.50609e-05
-9.29568e-05
-9.14518e-05
-3.17768e-05
5.98908e-06
0.000214679
3.90481e-05
0.000544341
3.25507e-05
0.000745329
1.40325e-06
0.000706794
-1.46178e-05
0.000712618
-1.57795e-05
0.00064667
-7.86386e-06
0.000506818
7.12366e-06
0.000313506
1.94787e-05
7.60805e-05
1.8021e-05
-0.000171774
-8.26724e-06
-0.00034116
-5.43328e-05
-0.000390524
-9.98074e-05
-0.000359208
-0.000128208
-0.000300345
-0.000138676
-0.000238315
-0.000128831
-0.000184952
-0.000103887
-0.000148393
-7.74494e-05
-0.000127817
-5.88338e-05
-0.000115649
-4.69049e-05
-0.000107842
-3.90252e-05
-0.000102294
-3.37812e-05
-9.82009e-05
-9.49043e-05
-3.03287e-05
2.0222e-06
0.000212656
2.65934e-05
0.00051977
3.84068e-05
0.000733515
2.53589e-05
0.000719842
2.54214e-05
0.000712555
3.06274e-05
0.000641464
3.83178e-05
0.000499127
4.66566e-05
0.000305168
5.10221e-05
7.1715e-05
3.63965e-05
-0.000157149
4.07337e-06
-0.000308836
-3.66173e-05
-0.000349833
-7.31633e-05
-0.000322662
-9.54726e-05
-0.000278036
-0.000101108
-0.00023268
-9.19732e-05
-0.000194087
-7.60266e-05
-0.00016434
-6.12325e-05
-0.00014261
-4.96316e-05
-0.00012725
-4.11114e-05
-0.000116362
-3.49453e-05
-0.00010846
-3.05667e-05
-0.00010258
-9.79236e-05
-2.75474e-05
8.27731e-06
0.000204379
4.38131e-05
0.000484234
5.86402e-05
0.000718688
5.62671e-05
0.000722215
6.59117e-05
0.000702911
7.62088e-05
0.000631167
8.38961e-05
0.00049144
8.60437e-05
0.00030302
8.05954e-05
7.71634e-05
5.82194e-05
-0.000134772
2.54027e-05
-0.00027602
-6.97569e-06
-0.000317455
-3.36767e-05
-0.000295961
-5.12937e-05
-0.000260419
-5.77829e-05
-0.000226191
-5.62062e-05
-0.000195663
-5.08017e-05
-0.000169744
-4.42881e-05
-0.000149124
-3.81487e-05
-0.000133389
-3.29825e-05
-0.000121528
-2.88942e-05
-0.000112548
-2.58515e-05
-0.000105622
-0.000100086
-2.36896e-05
1.84819e-05
0.000185897
7.02391e-05
0.000432477
9.77469e-05
0.000691181
9.73887e-05
0.000722573
0.000105518
0.000694782
0.000117647
0.000619038
0.000124443
0.000484643
0.000119076
0.000308388
0.000104638
9.16015e-05
7.87615e-05
-0.000108896
4.83381e-05
-0.000245596
2.16082e-05
-0.000290725
6.37481e-07
-0.00027499
-1.48273e-05
-0.000244954
-2.41572e-05
-0.000216861
-2.85036e-05
-0.000191317
-2.92868e-05
-0.000168961
-2.80323e-05
-0.000150378
-2.59546e-05
-0.000135466
-2.37599e-05
-0.000123723
-2.18119e-05
-0.000114496
-2.02673e-05
-0.000107167
-0.000101276
-1.90772e-05
2.73813e-05
0.000158516
6.74623e-05
0.000392396
0.000122034
0.000636609
0.000130359
0.000714248
0.000137065
0.000688077
0.000147982
0.00060812
0.000149908
0.000482717
0.000138698
0.000319598
0.000120483
0.000109817
9.60127e-05
-8.44261e-05
7.03536e-05
-0.000219937
4.76344e-05
-0.000268005
2.88292e-05
-0.000256185
1.35073e-05
-0.000229632
1.94039e-06
-0.000205294
-5.81243e-06
-0.000183564
-1.04458e-05
-0.000164327
-1.28803e-05
-0.000147943
-1.39432e-05
-0.000134404
-1.42698e-05
-0.000123397
-1.42632e-05
-0.000114503
-1.41446e-05
-0.000107286
-0.000101397
-1.40231e-05
3.82704e-05
0.000120245
5.23497e-05
0.000378317
0.000117295
0.000571664
0.000142774
0.000688769
0.000153523
0.000677327
0.000159638
0.000602004
0.000156154
0.000486202
0.000147065
0.000328686
0.000132556
0.000124326
0.000112399
-6.42689e-05
9.21778e-05
-0.000199716
7.22197e-05
-0.000248047
5.35951e-05
-0.00023756
3.73042e-05
-0.000213341
2.38357e-05
-0.000191825
1.35008e-05
-0.000173229
6.01701e-06
-0.000156843
8.08252e-07
-0.000142734
-2.74621e-06
-0.000130849
-5.16925e-06
-0.000120974
-6.85111e-06
-0.000112821
-8.0127e-06
-0.000106124
-0.000100538
-8.87225e-06
4.66229e-05
7.36225e-05
6.3471e-05
0.000361469
0.000103812
0.000531324
0.000142331
0.00065025
0.00015486
0.000664798
0.000153632
0.000603233
0.000151482
0.000488352
0.000153984
0.000326184
0.000145858
0.000132452
0.00013094
-4.93509e-05
0.000115483
-0.000184259
9.6113e-05
-0.000228677
7.59358e-05
-0.000217383
5.76937e-05
-0.000195099
4.22706e-05
-0.000176402
2.98357e-05
-0.000160793
2.01647e-05
-0.000147172
1.28148e-05
-0.000135384
7.30652e-06
-0.000125341
3.20238e-06
-0.00011687
1.48615e-07
-0.000109768
-2.14148e-06
-0.000103834
-9.88302e-05
-3.84982e-06
4.14372e-05
3.21855e-05
7.279e-05
0.000330116
9.38097e-05
0.000510304
0.000130951
0.000613109
0.000147109
0.000648639
0.000147772
0.00060257
0.000160957
0.000475168
0.000176222
0.000310919
0.000167169
0.000141505
0.000155847
-3.80289e-05
0.000141911
-0.000170323
0.000119572
-0.000206338
9.59671e-05
-0.000193778
7.51636e-05
-0.000174295
5.77239e-05
-0.000158962
4.34285e-05
-0.000146498
3.19787e-05
-0.000135722
2.29679e-05
-0.000126374
1.5958e-05
-0.000118331
1.05456e-05
-0.000111457
6.38328e-06
-0.000105605
3.18456e-06
-0.000100636
-9.63788e-05
7.32854e-07
1.9179e-05
1.30073e-05
6.94671e-05
0.000279828
0.000101872
0.000477899
0.000128516
0.000586464
0.000150855
0.0006263
0.000172877
0.000580549
0.000197798
0.000450247
0.000206621
0.000302096
0.000193691
0.000154436
0.000188311
-3.26493e-05
0.000169969
-0.000151981
0.000141314
-0.000177683
0.000113082
-0.000165545
8.94137e-05
-0.000150627
7.00127e-05
-0.000139561
5.41535e-05
-0.000130639
4.1342e-05
-0.000122911
3.11144e-05
-0.000116146
2.30154e-05
-0.000110232
1.66408e-05
-0.000105083
1.16399e-05
-0.000100605
7.71757e-06
-9.6714e-05
-9.32981e-05
4.63673e-06
-5.35963e-06
1.83653e-05
5.88121e-05
0.000215656
0.000104532
0.00043218
0.000141427
0.000549568
0.000175175
0.000592552
0.00020592
0.000549804
0.000221393
0.000434774
0.000223221
0.000300268
0.000224919
0.000152738
0.000222578
-3.03083e-05
0.000194598
-0.000124001
0.000158046
-0.000141131
0.00012553
-0.000133029
9.95731e-05
-0.00012467
7.87126e-05
-0.0001187
6.17892e-05
-0.000113715
4.81092e-05
-0.000109231
3.7116e-05
-0.000105153
2.83224e-05
-0.000101439
2.13071e-05
-9.80676e-05
1.57129e-05
-9.50109e-05
1.12382e-05
-9.22394e-05
-8.96997e-05
7.63967e-06
-1.32851e-05
3.16512e-05
3.28777e-05
0.000169493
9.09577e-05
0.0003741
0.000138293
0.000502233
0.000179624
0.000551222
0.000209414
0.000520014
0.000225169
0.000419019
0.000236872
0.000288565
0.000257939
0.000131671
0.000246851
-1.92196e-05
0.000208226
-8.53754e-05
0.000166004
-9.89095e-05
0.000131574
-9.85987e-05
0.000104771
-9.78664e-05
8.33872e-05
-9.73171e-05
6.6118e-05
-9.64458e-05
5.21503e-05
-9.52632e-05
4.08649e-05
-9.38678e-05
3.17581e-05
-9.2332e-05
2.44029e-05
-9.07125e-05
1.84454e-05
-8.90537e-05
1.35907e-05
-8.73849e-05
-8.57193e-05
9.61023e-06
-2.50565e-05
5.67083e-05
-3.30683e-06
0.000147743
6.25101e-05
0.000308283
0.0001175
0.000447242
0.00016465
0.000504073
0.000200596
0.000484068
0.000226315
0.0003933
0.000255079
0.0002598
0.000275525
0.000111226
0.000250008
6.29673e-06
0.000204896
-4.02634e-05
0.000163115
-5.71289e-05
0.00013033
-6.58136e-05
0.000104577
-7.21128e-05
8.38615e-05
-7.66017e-05
6.70698e-05
-7.96542e-05
5.34237e-05
-8.16171e-05
4.23156e-05
-8.27596e-05
3.32599e-05
-8.32764e-05
2.58537e-05
-8.33064e-05
1.97662e-05
-8.29665e-05
1.47341e-05
-8.2353e-05
-8.15469e-05
1.05616e-05
-3.35761e-05
9.02843e-05
-4.29011e-05
0.000157068
1.11405e-05
0.000254241
7.89614e-05
0.000379421
0.000135978
0.000447056
0.000184898
0.000435148
0.000227218
0.00035098
0.000260168
0.00022685
0.000261053
0.000110341
0.000227965
3.93844e-05
0.000186696
1.00564e-06
0.000151129
-2.15626e-05
0.000122564
-3.72481e-05
9.93585e-05
-4.89074e-05
8.03667e-05
-5.761e-05
6.47932e-05
-6.40807e-05
5.20173e-05
-6.88412e-05
4.15164e-05
-7.22588e-05
3.28581e-05