/*--------------------------------*- C++ -*----------------------------------*\
  =========                 |
  \\      /  F ield         | OpenFOAM: The Open Source CFD Toolbox
   \\    /   O peration     | Website:  https://openfoam.org
    \\  /    A nd           | Version:  13
     \\/     M anipulation  |
\*---------------------------------------------------------------------------*/
FoamFile
{
    format      ascii;
    class       volScalarField;
    location    "1";
    object      rho;
}
// * * * * * * * * * * * * * * * * * * * * * * * * * * * * * * * * * * * * * //

dimensions      [1 -3 0 0 0 0 0];

internalField   nonuniform List<scalar> 
2268
(
1000
1000
1000
1000
1000
1000
1000
1000
1000
1000
1000
1000
1000
996.928
980.232
981.75
990.097
988.974
973.106
984.794
998.453
999.998
999.974
1000
1000
1000
1000
1000
1000
1000
1000
1000
1000
1000
1000
999.895
974.919
956.535
957.447
976.047
973.742
971.675
971.607
988.132
999.998
999.974
1000
1000
1000
1000
1000
1000
1000
1000
1000
1000
1000
999.999
999.973
988.696
956.579
956.535
956.579
960.475
992.164
997.796
1000
999.998
999.985
1000
1000
1000
1000
1000
1000
1000
1000
1000
1000
1000
1000
999.996
999.858
988.126
968.409
974.971
997.982
1000
1000
1000
1000
999.999
1000
1000
1000
999.998
999.994
999.999
1000
1000
1000
1000
1000
1000
1000
999.996
999.955
999.167
999.803
1000
1000
1000
999.999
999.999
999.999
1000
1000
1000
1000
999.993
999.787
999.419
999.957
1000
1000
1000
1000
1000
1000
999.999
999.996
999.999
999.999
999.999
999.992
999.983
999.982
999.989
1000
1000
1000
1000
1000
999.217
998.711
999.693
1000
1000
1000
1000
1000
999.998
999.998
999.999
1000
999.999
999.999
999.955
999.79
999.79
999.614
1000
1000
1000
1000
1000
999.077
998.711
999.428
1000
1000
1000
1000
1000
1000
1000
1000
1000
1000
999.998
999.806
998.155
989.565
979.316
985.614
988.86
985.894
921.607
960.269
991.724
992.47
992.46
918.435
710.217
710.217
710.469
786.265
795.068
724.691
724.691
763.334
845.612
839.216
988.987
987.244
825.1
772.641
857.494
991.591
992.46
992.467
797.89
714.519
822.316
823.96
824.646
826.032
774.136
724.763
843.522
844.866
644.851
988.987
932.469
751.723
817.928
942.575
992.108
992.273
943.254
789.265
828.359
821.262
794.24
790.863
829.723
829.529
732.129
842.827
786.405
644.776
987.287
836.071
751.206
991.545
992.035
992.077
990.327
902.267
884.799
862.972
587.901
280.377
270.729
741.128
837.237
840.617
842.626
661.257
660.736
985.69
842.49
762.119
991.623
991.829
992.035
991.821
943.321
834.947
392.783
33.6362
4.72911
8.84152
223.49
819.846
837.237
676.791
657.914
661.205
980.686
825.571
911.947
988.33
989.607
991.824
990.544
859.284
315.327
8.96703
3.0909
2.42581
3.4304
7.22866
284.726
776.978
729.474
560.429
585.804
985.28
825.571
925.163
988.078
988.258
990.555
899.166
382.81
10.1364
3.30591
1.9908
1.71262
1.87622
2.48594
4.23973
179.317
271.489
78.333
61.6706
987.571
825.746
899.383
987.021
902.723
787.147
375.571
9.07159
2.8269
2.10129
1.66686
1.62311
1.64648
1.778
2.1826
3.20511
4.93523
10.7515
30.1738
938.465
989.289
1000
999.725
998.147
999.397
999.986
999.988
999.995
998.934
977.424
995.308
1000
946.716
869.519
790.475
705.296
718.32
853.149
977.844
911.387
880.77
957.676
528.08
613.749
876.715
974.511
987.53
999.662
999.977
982.527
978.616
998.855
951.618
519.309
163.817
150.804
175.73
179.772
197.456
514.523
839.259
751.881
682.337
824.928
979.005
527.014
529.683
552.231
877.277
999.098
999.293
999.839
985.087
608.057
229.759
140.456
139.186
139.186
139.403
142.117
272.961
421.466
440.52
412.39
424.325
802.026
968.785
976.136
612.451
711.422
728.094
786.801
880.238
999.098
862.031
376.502
159.305
218.286
289.554
289.554
288.777
309.066
309.566
309.103
298.812
95.8457
65.1298
555.543
948.843
962.392
864.983
534.735
149.295
39.9643
158.973
442.204
540.286
183.619
11.3226
8.95952
137.897
261.084
257.902
126.766
90.0158
95.215
96.1699
59.2821
21.4452
12.1636
152.574
684.26
948.843
406.496
460.293
21.3642
34.6201
135.637
53.2806
26.6337
8.36908
4.25293
2.68105
1.79498
1.00015
1.01095
11.3037
52.484
56.0612
21.9293
16.5129
8.40668
4.95447
9.34814
227.926
849.902
346.935
487.617
9.84246
39.122
107.342
27.2654
8.30996
4.02133
2.26746
1.36657
1.15387
1.00009
1.00015
1.00037
1.00121
1.00497
1.01956
1.39865
2.66617
2.44884
3.95028
36.7943
435.632
601.235
502.929
8.44712
8.62257
25.7062
35.2983
46.1498
37.314
30.891
16.3861
4.51807
1.00006
1.00009
1.00016
1.00043
1.00156
1.00634
1.05824
1.09832
1.13878
1.31389
2.89727
156.04
614.685
502.933
3.09341
1.39277
2.65822
28.5831
46.2191
46.2999
45.9253
45.042
2.58516
1.00004
1.00005
1.00021
1.00088
1.02595
1.08363
1.12219
1.1585
1.11584
1.02293
1.06068
1.87291
212.821
496.734
1.24669
1.11859
1.25799
3.72133
17.6956
36.3166
45.042
24.7867
1.03111
1.00002
1.00002
1.00002
1.00006
1.03861
1.14141
1.15352
1.15878
1.12178
1.01319
1.0169
1.01619
1.13419
489.774
1.09366
1.04601
1.10865
1.89839
2.67588
4.2952
6.34938
1.49599
1.00384
1.00002
1.00002
1.00002
1.00002
1.00002
1.00001
1.04521
1.11386
1.05923
1.003
1.00002
1.00031
1.00012
479.062
1.03542
1.01624
1.07756
1.21235
1.2882
1.36469
1.1098
1.0674
1.00165
1.00002
1.00002
1.00002
1.00001
1.00001
1
1
1
1
1.00108
1
1.00001
1.00002
466.644
1.01383
1.00631
1.01376
1.01729
1.04416
1.05373
1.01825
1.01083
1.00032
1.00002
1.00002
1.00002
1.00002
1.00001
1.00001
1
1
1
1
1
1.00018
1.00033
463.315
1.00586
1.00295
1.0028
1.00365
1.00495
1.00524
1.00343
1.00123
1.00009
1.00003
1.00016
1.00016
1.00009
1.00009
1.00005
1.00001
1
1
1
1
1.00003
1.00018
466.928
1.00292
1.00173
1.00104
1.00118
1.00153
1.00215
1.00166
1.00045
1.00023
1.00038
1.00192
1.00092
1.00088
1.00094
1.00048
1.00007
1.00001
1
1
1.00001
1
1
475.766
1.0136
1.00103
1.00061
1.00075
1.00098
1.0015
1.00207
1.00144
1.00043
1.0197
1.08172
1.09111
1.03822
1.02859
1.00385
1.00034
1.00006
1
1
1
1
1
474.852
2.31963
1.00061
1.00048
1.0006
1.00076
1.00111
1.00178
1.00273
1.05173
1.3199
1.34678
1.36185
1.38804
1.38927
1.21399
1.01032
1.00016
1
1
1
1
1
281.522
3.78377
1.00048
1.00046
1.00049
1.00066
1.00137
1.00535
1.16287
1.29277
1.31113
1.23009
1.29688
1.46299
1.47527
1.47686
1.31268
1.00491
1.00129
1
1
1
1
4.86291
1.96185
1.00045
1.00045
1.00047
1.00153
1.00307
1.1213
1.24965
1.25103
1.01245
1.00796
1.00943
1.04267
1.42299
1.47979
1.47933
1.18361
1.00729
1.00008
1
1
1
44.8053
1.00086
1.00041
1.00043
1.00045
1.00097
1.03988
1.21682
1.22936
1.01041
1.00784
1.00722
1.0078
1.00984
1.19789
1.47933
1.47979
1.43137
1.01667
1.00009
1
1
1
251.572
1.00041
1.00036
1.00039
1.00057
1.00114
1.02721
1.10565
1.05946
1.01487
1.01132
1.00525
1.0063
1.10698
1.40399
1.47763
1.47933
1.4602
1.01674
1
1
1
1
291.348
1.00036
1.00036
1.00036
1.00043
1.00432
1.00592
1.01278
1.03162
1.04291
1.07842
1.00489
1.01762
1.44599
1.46318
1.47207
1.47761
1.16498
1
1
1
1
1
292.525
1.07493
1.00048
1.00039
1.00042
1.00757
1.06454
1.17867
1.05474
1.27709
1.08967
1.00164
1.04515
1.43108
1.45406
1.44086
1.23054
1
1
1
1
1
1
292.361
2.08213
1.00186
1.00042
1.00066
1.00878
1.25589
1.28494
1.2859
1.28521
1.05259
1.00087
1.01929
1.12038
1.22667
1.04349
1
1
1
1
1
1
1
282.229
4.10915
1.00408
1.00064
1.00252
1.01586
1.28494
1.2894
1.29056
1.28939
1.01628
1.00029
1
1
1
1
1
1
1
1
1
1
1
74.1622
3.53844
1.00718
1.00163
1.00257
1.18149
1.28923
1.29056
1.29063
1.20579
1.00389
1.00004
1
1
1
1
1
1
1
1
1
1
1
27.0738
2.92423
1.0094
1.00284
1.00272
1.28261
1.29006
1.29064
1.29056
1.14559
1.00115
1.00015
1.00001
1
1.00002
1.00001
1
1
1
1
1
1
1
83.2856
3.75198
1.04756
1.00407
1.0029
1.16309
1.28555
1.29006
1.2905
1.12548
1.00195
1.00045
1.00006
1.00002
1.00003
1.00002
1
1
1
1
1
1
1
85.6646
7.3595
1.08295
1.0069
1.00359
1.00557
1.11601
1.07823
1.28692
1.11613
1.00455
1.00091
1.00018
1.00003
1.00002
1.00001
1
1
1
1
1
1
1
80.625
24.2897
1.05382
1.02456
1.00561
1.01006
1.01997
1.02783
1.23502
1.15638
1.02067
1.00181
1.00028
1.00003
1
1
1
1
1
1
1
1
1
7.51913
24.8133
1.75307
1.03701
1.01
1.01734
1.02174
1.02406
1.16311
1.24619
1.0398
1.0024
1.00035
1.00004
1
1
1
1
1
1
1
1
1
1.41044
24.8676
5.1468
1.04363
1.01802
1.02314
1.02344
1.02568
1.32227
1.33394
1.03625
1.00311
1.00042
1.00005
1
1
1
1
1
1
1
1
1
1.1163
24.8482
23.19
2.27841
1.04331
1.02344
1.02576
1.76628
2.87561
1.32859
1.02366
1.00381
1.00048
1.00005
1
1
1
1
1
1
1
1
1
1.07122
14.52
22.4672
17.0564
4.09073
1.44975
6.55434
10.1695
4.41454
1.13211
1.02448
1.00376
1.00048
1.00005
1
1
1
1
1
1
1
1
1
1.01985
1.38289
18.9689
18.713
17.0163
13.7386
12.8182
11.8023
3.17336
1.1018
1.01798
1.00272
1.00034
1.00004
1
1
1
1
1
1
1
1
1
1.00709
1.02837
6.43598
15.5654
16.0063
14.9228
14.0585
6.7736
1.355
1.05042
1.0086
1.00133
1.00017
1.00002
1
1
1
1
1
1
1
1
1
1.00246
1.02676
1.14623
4.70665
10.1164
11.7567
7.25864
1.99121
1.09333
1.01683
1.00263
1.00038
1.00005
1
1
1
1
1
1
1
1
1
1
1.00075
1.01618
1.04864
1.31003
2.04003
2.16924
1.45998
1.15372
1.03059
1.00419
1.00059
1.00007
1.00001
1
1
1
1
1
1
1
1
1
1
1.00024
1.00386
1.01458
1.07621
1.13451
1.13031
1.08109
1.02737
1.00598
1.00087
1.00011
1.00001
1
1
1
1
1
1
1
1
1
1
1
1.00003
1.00035
1.00278
1.01603
1.02982
1.02685
1.01561
1.00501
1.00108
1.00015
1.00002
1
1
1
1
1
1
1
1
1
1
1
1
1.00001
1.00003
1.0005
1.0031
1.00785
1.0068
1.0028
1.00083
1.00017
1.00002
1
1
1
1
1
1
1
1
1
1
1
1
1
1.00001
1.00001
1.00008
1.00064
1.00305
1.00271
1.00075
1.00015
1.00002
1
1
1
1
1
1
1
1
1
1
1
1
1
1
982.309
982.309
982.309
982.255
982.15
973.913
928.364
805.065
924.015
603.095
445.892
528.051
325.907
85.9187
45.1907
164.565
2.72918
2.64834
2.61374
2.53436
3.0101
2.71597
2.53458
2.28863
263.029
3.10783
2.72686
2.67505
614.685
604.693
122.257
68.6556
614.685
605.479
596.274
596.274
2.90744
222.297
508.572
560.639
1.00047
1.0072
1.05338
1.4346
1.00006
1.00008
1.00018
1.00347
1.00007
1.00004
1.00003
1.00006
1.00016
1.00004
1.00003
1
1.00001
1.0001
1.00003
1
1
1.00002
1.00001
1
1
1
1
1
1
1
1
1
1
1
1
1
1
1
1
1
1
1
1
1
1
1
1
1
1
1
1
1
1
1
1
1
1
1
1
1
1
1
1
1
1
1
1
1
1
1
1
1
1
1
1
1
1
1
1
1
1
1
1
1
1
1
1
1
1
1
1
1
1
1
1
1
1
1
1
1
1
1
1
1
1
1
1
1
1
1
1
1
1
1
1
1
1
1
1
1
1
1
1
1
1
1
1
1
987.571
936.742
969.269
986.571
873.044
413.865
40.1607
7.50808
1.85873
1.64164
1.61815
1.61608
1.62227
1.64501
1.76042
2.17455
3.75968
55.2902
163.302
873.589
947.293
947.355
982.6
981.388
632.186
62.4763
21.8659
1.6403
1.59169
1.60746
1.61617
1.61608
1.63499
1.71612
2.02017
3.08714
155.564
193.061
727.255
781.874
881.736
980.662
978.826
630.488
133.428
34.2067
1.59084
1.57669
1.59805
1.80402
1.75175
1.71591
2.01974
3.08908
18.748
195.12
193.644
459.212
697.806
727.681
670.881
703.644
289.949
133.537
26.485
1.57671
1.57151
1.57549
1.78889
3.22177
2.42949
10.5196
66.411
170.444
197.129
195.14
2.28873
2.06028
20.6042
57.3637
84.6488
43.521
40.5505
6.60955
1.57246
1.56945
1.57039
1.5812
2.27374
53.9773
153.911
198.801
198.206
198.206
159.182
2.06012
2.0082
1.92303
1.79352
2.41707
2.47547
2.15151
1.59227
1.56946
1.56893
1.56945
1.58624
92.3089
199.221
199.221
199.394
198.801
188.692
82.7073
2.31095
1.96602
1.79467
1.74979
1.74695
1.6739
1.64891
1.5775
1.56893
1.56885
1.56893
57.4509
194.744
197.07
199.309
198.665
123.36
4.81037
69.454
42.018
2.36766
1.88216
1.7162
1.67137
1.63697
1.5868
1.56994
1.56885
1.56886
1.56886
174.982
191.607
194.744
133.574
36.7462
1.00463
1.15283
29.2088
454.078
124.49
34.9321
1.88391
2.51794
1.95675
1.58216
1.56913
1.56886
1.56885
50.9159
175.751
182.562
38.6602
1.00087
1.00071
1.00086
1.11031
1.13121
560.009
551.022
438.166
49.1525
2.55013
3.97507
2.57631
1.5822
1.57049
1.56922
60.7094
165.715
13.687
1.05452
1.00071
1.00067
1.00098
1.00884
1.01211
230.405
537.085
549.524
519.794
10.8968
4.63586
4.72363
3.38209
1.60487
13.0652
116.695
61.1466
1.73685
1.01199
1.00067
1.00067
1.00067
1.00106
1.00433
1.06183
33.2502
467.318
563.726
415.933
3.75618
3.52735
1.90199
1.69917
94.6118
118.881
41.9642
1.15701
1.00439
1.00103
1.00067
1.00106
1.02805
1.15296
1.00151
1.0608
4.32119
466.53
575.94
283.76
2.26945
2.09128
17.8648
232.369
118.412
2.28775
1.04928
1.00103
1.00084
1.0146
1.01578
1.10029
1.28664
1.00002
1.00098
1.04489
10.1925
437.604
497.869
136.561
117.278
349.07
239.373
15.1684
1.08077
1.00169
1.00002
1
1.06165
1.13728
1.13863
1.28728
1
1.0001
1.00024
1.02507
8.68889
364.94
405.361
405.361
366.814
48.0264
1.00183
1.00209
1.00003
1
1
1.06177
1.15489
1.13924
1.28514
1
1
1.0001
1.00001
1.0028
1.00002
120.814
92.7364
1
1
1
1.00003
1
1.00001
1
1.01267
1.15029
1.1807
1.09589
1
1
1
1
1
1
1
1
1
1
1
1
1
1
1
1
1.07976
1.41461
1.03582
1
1
1
1
1
1
1
1
1
1
1
1
1
1
1
1
1.03078
1.41469
1.03568
1
1
1
1
1
1
1
1
1
1
1
1
1.00001
1
1
1
1.00833
1.41469
1.03646
1
1
1
1
1
1
1
1
1
1
1.00001
1.00015
1.00041
1.00027
1.00002
1
1
1.38107
1.02151
1
1
1
1
1
1
1
1
1
1.00005
1.00036
1.00064
1.00064
1.00064
1.00027
1
1
1.01997
1.00508
1
1
1
1
1
1
1
1
1.00006
1.00049
1.00062
1.00063
1.00064
1.00064
1.00043
1.00001
1.00042
1.00044
1.0006
1
1
1
1
1
1
1
1.00003
1.00045
1.00059
1.0006
1.00039
1.00051
1.00063
1.00018
1.00001
1.00349
1.0009
1.00118
1
1
1
1
1
1
1
1.00007
1.00056
1.00032
1.00014
1.00012
1.00012
1.00011
1.00003
1.00001
1.00936
1.02156
1.00349
1
1
1
1
1
1
1
1.00007
1.00058
1.00016
1.00014
1.00013
1.00012
1.00012
1.00018
1.00057
1.02538
1.02963
1.00375
1
1
1
1
1
1
1
1.00002
1.00058
1.00092
1.00016
1.00014
1.00014
1.00017
1.00035
1.00834
1.03833
1.0245
1.00037
1
1
1
1
1
1
1
1
1.0004
1.00521
1.0023
1.00023
1.00219
1.00595
1.0023
1.00519
1.02684
1
1
1
1
1
1
1
1
1
1
1
1.00516
1.01765
1.01154
1.02396
1.03075
1.02867
1.02393
1
1
1
1
1
1
1
1
1
1
1
1
1.00058
1.01802
1.03062
1.03076
1.03091
1.03054
1.01567
1.00012
1
1
1
1
1
1
1
1
1
1
1
1
1.00029
1.01619
1.0248
1.01633
1.00496
1
1.00001
1
1
1
1
1
1
1
1
1
1
1
1
1
1
1
1
1
1
1.00001
1
1
1
1
1
1
1
1
1
1
1
1
1
1
1
1
1
1.00001
1.00001
1
1
1
1
1
1
1
1
1
1
1
1
1
1
1
1
1
1
1
1
1
1
1
1
1
1
1
1
1
1
1
1
1
1
1
1
1
1
1
1
1
1
1
1
1
1
1
1
1
1
1
1
1
1
1
1
1
1
1
1
1
1
1
1
1
1
1
1
1
1
1
1
1
1
1
1
1
1
1
1
1
1
1
1
1
1
1
1
1
1
1
1
1
1
1
1
1
1
1
1
1
1
1
1
1
1
1
1
1
1
1
1
1
1
1
1
1
1
1
1
1
1
1
1
1
1
1
1
1
1
1
1
1
1
1
1
1
1
1
1
1
1
1
1
1
1
1
1
1
1
1
1
1
1
1
1
1
1
1
1
1
1
1
1
1
1
1
1
1
1
1
1
1
1
1
1
1
1
1
1
1
1
1
1
1
1
1
1
1
1
1
1
)
;

boundaryField
{
    leftWall
    {
        type            calculated;
        value           nonuniform List<scalar> 
50
(
1000
1000
1000
1000
1000
1000
1000
1000
938.465
528.08
527.014
612.451
534.735
460.293
487.617
502.929
502.933
496.734
489.774
479.062
466.644
463.315
466.928
475.766
474.852
281.522
4.86291
44.8053
251.572
291.348
292.525
292.361
282.229
74.1622
27.0738
83.2856
85.6646
80.625
7.51913
1.41044
1.1163
1.07122
1.01985
1.00709
1.00246
1.00075
1.00024
1.00003
1.00001
1.00001
)
;
    }
    rightWall
    {
        type            calculated;
        value           nonuniform List<scalar> 
50
(
839.216
644.851
644.776
660.736
661.205
585.804
61.6706
30.1738
163.302
193.061
193.644
195.14
159.182
82.7073
69.454
29.2088
1.13121
1.01211
1.00433
1.15296
1.28664
1.28728
1.28514
1.09589
1.03582
1.03568
1.03646
1.02151
1.00508
1.0006
1.00118
1.00349
1.00375
1.00037
1
1
1
1
1
1
1
1
1
1
1
1
1
1
1
1
)
;
    }
    lowerWall
    {
        type            calculated;
        value           nonuniform List<scalar> 
62
(
1000
1000
1000
1000
1000
1000
1000
1000
1000
1000
1000
1000
1000
996.928
980.232
981.75
990.097
988.974
973.106
984.794
998.453
999.998
999.974
999.974
999.974
999.985
999.999
999.999
999.989
999.614
979.316
982.309
982.309
982.309
982.255
985.614
988.987
988.987
987.287
985.69
980.686
985.28
987.571
985.614
988.86
985.894
921.607
960.269
991.724
992.47
992.46
918.435
710.217
710.217
710.469
786.265
795.068
724.691
724.691
763.334
845.612
839.216
)
;
    }
    atmosphere
    {
        type            calculated;
        value           nonuniform List<scalar> 
46
(
1.00001
1.00001
1.00008
1.00064
1.00305
1.00271
1.00075
1.00015
1.00002
1
1
1
1
1
1
1
1
1
1
1
1
1
1
1
1
1
1
1
1
1
1
1
1
1
1
1
1
1
1
1
1
1
1
1
1
1
)
;
    }
    defaultFaces
    {
        type            empty;
    }
}


// ************************************************************************* //
