/*--------------------------------*- C++ -*----------------------------------*\
  =========                 |
  \\      /  F ield         | OpenFOAM: The Open Source CFD Toolbox
   \\    /   O peration     | Website:  https://openfoam.org
    \\  /    A nd           | Version:  13
     \\/     M anipulation  |
\*---------------------------------------------------------------------------*/
FoamFile
{
    format      ascii;
    class       volVectorField;
    location    "1";
    object      U;
}
// * * * * * * * * * * * * * * * * * * * * * * * * * * * * * * * * * * * * * //

dimensions      [0 1 -1 0 0 0 0];

internalField   nonuniform List<vector> 
2268
(
(0.0210321 -0.0181651 0)
(0.0493039 -0.00940178 0)
(0.0282078 0.00833221 0)
(-0.0368133 0.0169745 0)
(-0.0666822 0.00618675 0)
(-0.0372369 -0.00741482 0)
(0.00558231 -0.00760876 0)
(0.0282699 -0.00207227 0)
(0.0278795 0.00134477 0)
(0.0166341 0.00419065 0)
(-0.0055691 0.00630795 0)
(-0.0354137 0.00525454 0)
(-0.0579081 -0.00193587 0)
(-0.0655285 -0.00888014 0)
(-0.0822714 0.00291472 0)
(-0.17042 0.0297098 0)
(-0.314747 0.0337416 0)
(-0.393389 0.0106928 0)
(-0.373203 -0.0138402 0)
(-0.313674 -0.023865 0)
(-0.23352 -0.0287015 0)
(-0.132488 -0.0323671 0)
(-0.0385444 -0.0224378 0)
(-0.0100114 -0.0175646 0)
(-0.0356192 0.00795218 0)
(-0.067085 0.0310523 0)
(-0.100571 0.0279455 0)
(-0.0882959 -0.0024116 0)
(-0.0492039 -0.0279309 0)
(-0.00341843 -0.0250551 0)
(0.0249427 -0.00766405 0)
(0.0248532 0.00395339 0)
(0.0116561 0.0124574 0)
(-0.0117681 0.0188268 0)
(-0.0417081 0.0205022 0)
(-0.0763258 0.0160019 0)
(-0.127021 0.0199464 0)
(-0.196993 0.0505011 0)
(-0.285657 0.0781309 0)
(-0.355091 0.0637074 0)
(-0.327784 0.0136115 0)
(-0.275829 -0.0287306 0)
(-0.248452 -0.0460607 0)
(-0.187775 -0.0623937 0)
(-0.109321 -0.0752753 0)
(-0.0272539 -0.0562657 0)
(-0.0272263 0.00265899 0)
(-0.0744415 0.0239481 0)
(-0.108099 0.0408805 0)
(-0.115373 0.026441 0)
(-0.0962359 -0.0161436 0)
(-0.0584897 -0.0511399 0)
(-0.0112971 -0.0451994 0)
(0.0183461 -0.0150879 0)
(0.0219406 0.00585376 0)
(0.0134138 0.0197005 0)
(-0.00201074 0.0290667 0)
(-0.0213983 0.0349638 0)
(-0.0511461 0.0391426 0)
(-0.10295 0.0504187 0)
(-0.174109 0.0808769 0)
(-0.232005 0.0973361 0)
(-0.238347 0.0604411 0)
(-0.203436 -0.00775992 0)
(-0.206515 -0.0436459 0)
(-0.205366 -0.0609216 0)
(-0.164777 -0.0878736 0)
(-0.103519 -0.110276 0)
(-0.0207251 -0.0823667 0)
(-0.0270114 0.0259595 0)
(-0.0706199 0.0421048 0)
(-0.0986234 0.0474438 0)
(-0.101674 0.0246624 0)
(-0.0850579 -0.0278029 0)
(-0.0461647 -0.0731325 0)
(-0.0103881 -0.0629811 0)
(0.0126908 -0.0226935 0)
(0.0156134 0.00638059 0)
(0.00880565 0.0248593 0)
(-0.00352409 0.0356525 0)
(-0.016889 0.0437181 0)
(-0.0351085 0.0547398 0)
(-0.0618476 0.0739397 0)
(-0.0946978 0.100806 0)
(-0.119791 0.106689 0)
(-0.118232 0.064035 0)
(-0.132828 0.00483693 0)
(-0.189062 -0.0306795 0)
(-0.213862 -0.0650823 0)
(-0.181268 -0.11185 0)
(-0.110825 -0.148224 0)
(-0.0219811 -0.10759 0)
(-0.0173829 0.0444203 0)
(-0.0443351 0.0563664 0)
(-0.0637233 0.0530823 0)
(-0.0667263 0.0237162 0)
(-0.0480131 -0.0389155 0)
(-0.00889882 -0.089978 0)
(0.00531305 -0.0728789 0)
(0.0137997 -0.0267596 0)
(0.0097729 0.00714677 0)
(0.000960674 0.029044 0)
(-0.0121824 0.0406841 0)
(-0.0242591 0.0489188 0)
(-0.0356979 0.0616899 0)
(-0.0445041 0.0819091 0)
(-0.0476433 0.106167 0)
(-0.0504354 0.10979 0)
(-0.0661137 0.0755515 0)
(-0.128064 0.0321897 0)
(-0.203826 -0.00852841 0)
(-0.234469 -0.0666916 0)
(-0.199025 -0.139704 0)
(-0.117147 -0.192281 0)
(-0.0291744 -0.138533 0)
(-0.00371381 0.0549669 0)
(-0.00823794 0.0644956 0)
(-0.0151889 0.0569059 0)
(-0.0156627 0.0211138 0)
(0.0115054 -0.050208 0)
(0.047788 -0.0983471 0)
(0.0396921 -0.0741559 0)
(0.0284582 -0.0224577 0)
(0.0149384 0.014356 0)
(0.00166847 0.0367499 0)
(-0.0147254 0.0478625 0)
(-0.0278347 0.0545053 0)
(-0.0377451 0.066749 0)
(-0.0427145 0.0835722 0)
(-0.0398608 0.10506 0)
(-0.0398125 0.115221 0)
(-0.0677991 0.100447 0)
(-0.140059 0.0691388 0)
(-0.216748 0.0168631 0)
(-0.24771 -0.0691177 0)
(-0.210426 -0.171621 0)
(-0.133551 -0.240444 0)
(-0.0482394 -0.178377 0)
(0.0115549 0.0493736 0)
(0.0299455 0.0606116 0)
(0.0366854 0.0539814 0)
(0.0403522 0.0151428 0)
(0.0854191 -0.0636554 0)
(0.106986 -0.103399 0)
(0.0866175 -0.0688228 0)
(0.0632611 -0.0139889 0)
(0.0416061 0.0181783 0)
(0.0213554 0.0413941 0)
(0.00127353 0.0521078 0)
(-0.0121485 0.0562089 0)
(-0.0214389 0.0684724 0)
(-0.0241273 0.0819069 0)
(-0.0221196 0.101578 0)
(-0.0289992 0.120372 0)
(-0.06663 0.128181 0)
(-0.148365 0.110963 0)
(-0.23348 0.0448534 0)
(-0.268315 -0.0723484 0)
(-0.235782 -0.200244 0)
(-0.162692 -0.279211 0)
(-0.0595259 -0.210009 0)
(0.0250944 0.0387993 0)
(0.0642158 0.0607765 0)
(0.0855393 0.0585784 0)
(0.10597 0.00479097 0)
(0.150551 -0.0726481 0)
(0.148796 -0.107187 0)
(0.121737 -0.0630784 0)
(0.0995164 -0.000708496 0)
(0.0787981 0.0337879 0)
(0.0577632 0.0544252 0)
(0.0331688 0.0663637 0)
(0.0208531 0.0681262 0)
(0.0162449 0.077486 0)
(0.0165478 0.0876698 0)
(0.0118142 0.111773 0)
(-0.00579317 0.13527 0)
(-0.0551753 0.148264 0)
(-0.154523 0.140658 0)
(-0.271614 0.0781929 0)
(-0.326391 -0.0635364 0)
(-0.284358 -0.218233 0)
(-0.173143 -0.312813 0)
(-0.0292877 -0.250032 0)
(0.115626 -0.0230992 0)
(-0.0990103 0.0316529 0)
(-0.12925 -0.0174748 0)
(0.126876 -0.0731145 0)
(0.367956 -0.059813 0)
(0.512953 -0.00816832 0)
(0.470141 0.0254983 0)
(0.29256 0.0304336 0)
(0.138018 0.0262049 0)
(0.0405576 0.0279892 0)
(-0.131161 0.0375056 0)
(-0.173214 0.00788962 0)
(-0.0685174 -0.031533 0)
(0.0949524 -0.0519537 0)
(0.248027 0.0182 0)
(0.00917144 0.0574037 0)
(-0.314047 0.00254774 0)
(-0.206518 -0.0471978 0)
(-0.0411174 -0.0377746 0)
(-0.0215548 0.015936 0)
(-0.158133 0.0554946 0)
(-0.0699994 -0.0660171 0)
(0.172749 -0.183255 0)
(0.370038 -0.115215 0)
(0.437043 -0.00831228 0)
(0.457556 0.0633514 0)
(0.28882 0.0912772 0)
(0.0795249 0.0965795 0)
(-0.169214 0.0998383 0)
(-0.391648 0.0652628 0)
(-0.454728 -0.0110809 0)
(-0.391242 -0.0835517 0)
(-0.22156 -0.108261 0)
(-0.00202231 0.0466058 0)
(0.0386997 0.144524 0)
(-0.259324 0.0525617 0)
(-0.113675 -0.0730699 0)
(-0.0465743 -0.0759114 0)
(-0.0628911 0.0508406 0)
(-0.148084 0.0617111 0)
(-0.0483335 -0.128569 0)
(0.125758 -0.301376 0)
(0.272739 -0.172952 0)
(0.279523 -0.0100673 0)
(0.25188 0.0917284 0)
(0.0822488 0.162777 0)
(-0.167402 0.206872 0)
(-0.446339 0.229516 0)
(-0.664361 0.181417 0)
(-0.765933 0.0178591 0)
(-0.696805 -0.182376 0)
(-0.495385 -0.219044 0)
(-0.241362 -0.036965 0)
(-0.0330721 0.16747 0)
(-0.152029 0.0802621 0)
(-0.084875 -0.0924466 0)
(-0.044136 -0.0977171 0)
(-0.0623779 0.084905 0)
(-0.111744 0.0632708 0)
(-0.0535035 -0.177343 0)
(0.00201517 -0.359827 0)
(0.0428547 -0.183607 0)
(0.0527946 0.0211799 0)
(-0.0852966 0.150048 0)
(-0.243062 0.258285 0)
(-0.473768 0.313566 0)
(-0.738408 0.277089 0)
(-0.969665 0.141913 0)
(-1.09671 -0.0554376 0)
(-1.00996 -0.288619 0)
(-0.731183 -0.335647 0)
(-0.446657 -0.112548 0)
(-0.221321 0.104414 0)
(-0.131739 0.0789326 0)
(-0.171566 -0.111724 0)
(-0.0654222 -0.143513 0)
(-0.0430152 0.113116 0)
(-0.0771587 0.0752386 0)
(-0.0743298 -0.192714 0)
(-0.124731 -0.348003 0)
(-0.235134 -0.146865 0)
(-0.281417 0.0817011 0)
(-0.420642 0.217689 0)
(-0.543857 0.3331 0)
(-0.745156 0.393143 0)
(-0.982778 0.372091 0)
(-1.26339 0.290654 0)
(-1.62413 0.101403 0)
(-1.48508 -0.361338 0)
(-1.02986 -0.46481 0)
(-0.622152 -0.210408 0)
(-0.409314 0.0283559 0)
(-0.29332 0.0258976 0)
(-0.222702 -0.143551 0)
(-0.0716469 -0.20287 0)
(-0.0100379 0.130803 0)
(-0.0285778 0.089002 0)
(-0.0800037 -0.163298 0)
(-0.189413 -0.297728 0)
(-0.442476 -0.0914333 0)
(-0.515326 0.136152 0)
(-0.650723 0.266158 0)
(-0.777902 0.387673 0)
(-0.970823 0.483637 0)
(-1.25154 0.536758 0)
(-1.75575 0.531954 0)
(-2.15601 0.13695 0)
(-2.09657 -0.521497 0)
(-1.68285 -0.664625 0)
(-1.01062 -0.329353 0)
(-0.498048 -0.0556435 0)
(-0.426177 -0.0147379 0)
(-0.45593 -0.1699 0)
(-0.140608 -0.220399 0)
(0.0350593 0.129893 0)
(0.0544873 0.12005 0)
(-0.0231309 -0.10618 0)
(-0.145151 -0.214803 0)
(-0.522275 -0.0143524 0)
(-0.640293 0.199704 0)
(-0.80811 0.321264 0)
(-0.973214 0.460912 0)
(-1.21275 0.624086 0)
(-1.64541 0.759049 0)
(-2.22847 0.727228 0)
(-2.53008 0.153153 0)
(-2.68114 -0.616813 0)
(-2.67577 -0.887987 0)
(-2.16024 -0.555878 0)
(-1.36076 -0.165468 0)
(-0.999442 -0.0403778 0)
(-1.20105 -0.238464 0)
(-0.31658 -0.464269 0)
(0.0572656 0.081022 0)
(0.137594 0.127759 0)
(0.0857088 -0.0489396 0)
(-0.0085208 -0.109693 0)
(-0.456447 0.0917269 0)
(-0.622298 0.285919 0)
(-0.854871 0.396084 0)
(-1.08954 0.578994 0)
(-1.41291 0.802094 0)
(-1.88801 0.992961 0)
(-2.2713 0.913138 0)
(-2.31206 0.313308 0)
(-2.51166 -0.448713 0)
(-3.06537 -0.942868 0)
(-3.55632 -0.934055 0)
(-3.59353 -0.452011 0)
(-2.73907 -0.138642 0)
(-1.37075 -0.644409 0)
(-0.247357 -0.975275 0)
(0.0593899 -0.00781924 0)
(0.129203 0.00235739 0)
(0.160311 -0.00154348 0)
(0.187238 -0.0295483 0)
(0.209537 -0.0688161 0)
(0.167977 -0.0856173 0)
(0.11789 -0.0471693 0)
(0.0695641 0.00615404 0)
(-0.00950683 0.0449439 0)
(-0.0495963 0.0857474 0)
(-0.043105 0.0801765 0)
(-0.0275937 0.0635598 0)
(-0.0314201 0.0486324 0)
(-0.0558318 0.0403344 0)
(-0.0773101 0.0609685 0)
(-0.129552 0.116773 0)
(-0.268439 0.216966 0)
(-0.458005 0.268885 0)
(-0.534779 0.149007 0)
(-0.499675 -0.0792633 0)
(-0.372986 -0.290931 0)
(-0.175049 -0.443751 0)
(-0.00182191 -0.4066 0)
(0.0831873 -0.135581 0)
(0.219849 -0.012092 0)
(0.269102 0.0534652 0)
(0.280827 -0.0039446 0)
(0.249478 -0.0545973 0)
(0.15008 -0.0300428 0)
(0.00934793 0.0341386 0)
(-0.115769 0.148965 0)
(-0.297644 0.171018 0)
(-0.377009 0.0956168 0)
(-0.43116 0.0196579 0)
(-0.450725 0.0176429 0)
(-0.460392 0.127226 0)
(-0.614567 0.185523 0)
(-0.785578 0.27009 0)
(-0.849874 0.389694 0)
(-0.855191 0.484927 0)
(-0.885113 0.377227 0)
(-0.828516 0.0928511 0)
(-0.729548 -0.214802 0)
(-0.492281 -0.558123 0)
(-0.287726 -0.694324 0)
(-0.177185 -0.570274 0)
(0.0242117 -0.396397 0)
(0.204303 -0.228992 0)
(0.275071 -0.0829185 0)
(0.250745 -0.0221201 0)
(0.115607 0.093291 0)
(-0.0203153 0.128028 0)
(-0.33796 0.271019 0)
(-0.649936 0.322436 0)
(-0.84557 0.281517 0)
(-0.923297 0.249088 0)
(-0.985793 0.173928 0)
(-1.07418 0.192975 0)
(-1.10117 0.305173 0)
(-1.12688 0.295549 0)
(-1.07069 0.244417 0)
(-0.945062 0.20639 0)
(-0.827283 0.229146 0)
(-0.86752 0.240728 0)
(-1.02247 0.042478 0)
(-0.929404 -0.472461 0)
(-0.666776 -0.862044 0)
(-0.5684 -0.801718 0)
(-0.533061 -0.586154 0)
(-0.0904408 -0.403948 0)
(-0.0298086 -0.120412 0)
(-0.0759239 0.0576401 0)
(-0.0163725 0.0786916 0)
(-0.0465611 0.196449 0)
(-0.365184 0.430146 0)
(-0.810735 0.56727 0)
(-1.18883 0.519989 0)
(-1.52903 0.391158 0)
(-1.57797 0.141071 0)
(-1.46769 0.0154293 0)
(-1.35625 0.071853 0)
(-1.23881 0.160467 0)
(-1.12257 0.163692 0)
(-0.972754 0.13418 0)
(-0.806848 0.14355 0)
(-0.70858 0.257921 0)
(-0.825705 0.478857 0)
(-1.10333 0.127919 0)
(-0.917204 -0.723949 0)
(-0.831704 -0.979523 0)
(-0.826477 -0.791859 0)
(-0.847039 -0.549874 0)
(-0.158428 -0.262123 0)
(-0.216076 -0.195873 0)
(-0.047473 -0.223955 0)
(-0.339736 0.0249967 0)
(-0.49191 0.527321 0)
(-0.753951 0.78475 0)
(-1.17533 0.929304 0)
(-1.60516 0.975597 0)
(-1.84375 0.585871 0)
(-1.87313 0.132766 0)
(-1.78568 -0.0332429 0)
(-1.61254 -0.00470074 0)
(-1.38228 0.0410948 0)
(-1.12488 -0.00877519 0)
(-0.855741 -0.093443 0)
(-0.627133 -0.065498 0)
(-0.483807 0.171986 0)
(-0.478995 0.660056 0)
(-0.801536 0.640712 0)
(-0.886958 -0.710988 0)
(-0.937181 -0.994754 0)
(-0.935613 -0.765271 0)
(-0.967821 -0.479249 0)
(-0.152389 -0.0871672 0)
(-0.425968 0.072507 0)
(-0.756882 0.194508 0)
(-0.961823 0.422101 0)
(-1.07092 0.877251 0)
(-1.1784 1.09376 0)
(-1.34766 1.32495 0)
(-1.44502 1.3641 0)
(-1.56316 0.841819 0)
(-1.59574 0.0859881 0)
(-1.34865 -0.322447 0)
(-1.40978 -0.314743 0)
(-1.3721 -0.311215 0)
(-1.26228 -0.416154 0)
(-1.05699 -0.453027 0)
(-0.874923 -0.270083 0)
(-0.771395 0.192055 0)
(-0.704605 0.806631 0)
(-0.646753 0.790775 0)
(-0.844868 -0.521295 0)
(-0.957985 -0.961364 0)
(-0.933461 -0.759157 0)
(-0.90178 -0.415473 0)
(-0.0815524 0.173338 0)
(-0.545648 0.391748 0)
(-1.15965 0.119942 0)
(-1.14122 0.362829 0)
(-1.00059 0.920654 0)
(-1.08541 1.20542 0)
(-1.06801 1.34289 0)
(-0.837471 1.32749 0)
(-0.80021 1.00317 0)
(-0.682734 0.31739 0)
(-1.35124 -0.212104 0)
(-1.35829 -0.0810815 0)
(-1.24353 -0.0657369 0)
(-1.18428 -0.344653 0)
(-1.22312 -0.44919 0)
(-1.31607 -0.279279 0)
(-1.28525 0.175308 0)
(-1.10874 0.563211 0)
(-0.887836 0.54361 0)
(-0.79018 -0.403471 0)
(-0.94321 -0.943192 0)
(-0.930844 -0.809934 0)
(-0.831045 -0.47521 0)
(-0.0661393 0.278857 0)
(-0.118331 1.35521 0)
(-1.12873 0.367636 0)
(-1.23586 0.266318 0)
(-1.09723 0.611999 0)
(-0.744791 0.860576 0)
(-0.411543 0.949806 0)
(-0.128908 0.946117 0)
(-0.0817717 0.94985 0)
(-0.0654004 0.852753 0)
(-0.874369 0.0819799 0)
(-1.12898 -0.182282 0)
(-1.13233 -0.259856 0)
(-1.20415 -0.29901 0)
(-1.28507 -0.348876 0)
(-1.34626 -0.260495 0)
(-1.27262 0.0708982 0)
(-1.03893 0.429519 0)
(-0.738512 0.282822 0)
(-0.628934 -0.437215 0)
(-0.875577 -0.834986 0)
(-0.923809 -0.846154 0)
(-0.820921 -0.623332 0)
(-0.0648536 0.304005 0)
(-0.048998 2.13683 0)
(-0.876381 1.08163 0)
(-1.06274 0.404903 0)
(-0.982004 0.442586 0)
(-0.743077 0.497743 0)
(-0.452564 0.597634 0)
(-0.201544 0.744674 0)
(-0.0871203 0.925916 0)
(-0.139807 1.06658 0)
(-0.746274 0.575355 0)
(-0.941201 0.0768388 0)
(-0.938409 -0.186177 0)
(-0.982456 -0.286843 0)
(-1.02296 -0.34225 0)
(-1.0523 -0.323464 0)
(-0.971677 -0.186271 0)
(-0.734844 0.00690104 0)
(-0.446322 0.0556662 0)
(-0.357984 -0.239436 0)
(-0.618252 -0.63819 0)
(-0.839525 -0.838056 0)
(-0.863175 -0.781901 0)
(-0.0656847 0.343249 0)
(-0.0748997 2.55928 0)
(-0.516533 1.44434 0)
(-0.72617 0.636324 0)
(-0.774912 0.372416 0)
(-0.71257 0.280545 0)
(-0.625247 0.387618 0)
(-0.516423 0.708073 0)
(-0.426743 1.07977 0)
(-0.589572 1.28335 0)
(-0.945161 0.836548 0)
(-0.793812 0.121209 0)
(-0.756181 -0.17168 0)
(-0.744943 -0.264427 0)
(-0.73805 -0.313408 0)
(-0.739949 -0.301828 0)
(-0.695114 -0.229307 0)
(-0.563307 -0.167396 0)
(-0.38793 -0.172649 0)
(-0.263415 -0.247019 0)
(-0.259975 -0.370798 0)
(-0.425705 -0.578921 0)
(-0.725749 -0.802315 0)
(-0.0707627 0.41102 0)
(-0.0467301 2.5779 0)
(-0.112185 1.59197 0)
(-0.465726 0.820049 0)
(-0.515982 0.462231 0)
(-0.623173 0.24479 0)
(-0.749369 0.346293 0)
(-0.809795 0.696919 0)
(-0.896665 1.20072 0)
(-1.14209 1.42821 0)
(-0.986764 0.738152 0)
(-0.679875 0.0129105 0)
(-0.658214 -0.203113 0)
(-0.633401 -0.28091 0)
(-0.610557 -0.324139 0)
(-0.580411 -0.325188 0)
(-0.526639 -0.299458 0)
(-0.443237 -0.277305 0)
(-0.34311 -0.282503 0)
(-0.26316 -0.333001 0)
(-0.21981 -0.39311 0)
(-0.217429 -0.418078 0)
(-0.280886 -0.434874 0)
(-0.0800231 0.484073 0)
(-0.0385235 2.4503 0)
(0.0390311 1.7658 0)
(-0.404089 1.02202 0)
(-0.513134 0.618271 0)
(-0.805219 0.422192 0)
(-1.14521 0.557678 0)
(-1.35598 0.929796 0)
(-1.36996 1.30929 0)
(-1.2585 1.19479 0)
(-0.83789 0.414224 0)
(-0.657119 -0.0910753 0)
(-0.681528 -0.215372 0)
(-0.653774 -0.306216 0)
(-0.609382 -0.361437 0)
(-0.546627 -0.377126 0)
(-0.467915 -0.366882 0)
(-0.380593 -0.352344 0)
(-0.29738 -0.351154 0)
(-0.232205 -0.373065 0)
(-0.196414 -0.42881 0)
(-0.190617 -0.497094 0)
(-0.181412 -0.473749 0)
(-0.0960956 0.552864 0)
(-0.0394694 2.39816 0)
(-0.060417 1.97463 0)
(-0.442813 1.28738 0)
(-0.61129 0.88327 0)
(-0.987587 0.730785 0)
(-1.33699 0.842636 0)
(-1.50325 1.0661 0)
(-1.39403 1.14159 0)
(-1.07439 0.770431 0)
(-0.792794 0.177779 0)
(-0.821715 -0.084428 0)
(-0.823795 -0.228374 0)
(-0.759406 -0.356544 0)
(-0.672267 -0.433873 0)
(-0.572921 -0.464859 0)
(-0.473592 -0.463515 0)
(-0.379549 -0.448285 0)
(-0.294354 -0.434889 0)
(-0.223068 -0.433869 0)
(-0.175666 -0.44887 0)
(-0.159725 -0.474214 0)
(-0.156422 -0.493624 0)
(-0.124172 0.613497 0)
(-0.0106144 2.45331 0)
(-0.209759 2.17327 0)
(-0.461108 1.55561 0)
(-0.662281 1.18256 0)
(-1.00898 1.04688 0)
(-1.28447 1.06212 0)
(-1.36796 1.06882 0)
(-1.23275 0.902264 0)
(-1.04756 0.522563 0)
(-1.04518 0.168114 0)
(-1.08283 -0.0674021 0)
(-1.0096 -0.285329 0)
(-0.887591 -0.450745 0)
(-0.741484 -0.545746 0)
(-0.597266 -0.57642 0)
(-0.474181 -0.565852 0)
(-0.375776 -0.539964 0)
(-0.296523 -0.514723 0)
(-0.233676 -0.498144 0)
(-0.188164 -0.492988 0)
(-0.160888 -0.493406 0)
(-0.14822 -0.491949 0)
(-0.164084 0.666686 0)
(0.0428514 2.5129 0)
(-0.265098 2.3603 0)
(-0.415025 1.78384 0)
(-0.631629 1.44798 0)
(-0.927391 1.31388 0)
(-1.15807 1.23151 0)
(-1.25886 1.09402 0)
(-1.27418 0.852592 0)
(-1.32884 0.54026 0)
(-1.39971 0.216609 0)
(-1.34784 -0.115032 0)
(-1.19719 -0.413745 0)
(-1.00063 -0.620476 0)
(-0.791577 -0.724862 0)
(-0.599207 -0.734165 0)
(-0.447702 -0.686916 0)
(-0.344077 -0.627823 0)
(-0.275949 -0.580033 0)
(-0.228755 -0.546454 0)
(-0.196699 -0.526068 0)
(-0.175993 -0.514325 0)
(-0.16276 -0.506699 0)
(-0.20959 0.723675 0)
(0.194897 2.72226 0)
(-0.130539 2.6117 0)
(-0.32484 1.99459 0)
(-0.577426 1.68864 0)
(-0.861211 1.55963 0)
(-1.12198 1.42903 0)
(-1.34611 1.24934 0)
(-1.55156 0.99591 0)
(-1.6926 0.639874 0)
(-1.66513 0.181621 0)
(-1.47477 -0.290378 0)
(-1.21938 -0.651854 0)
(-0.959036 -0.866125 0)
(-0.719439 -0.957135 0)
(-0.519607 -0.926989 0)
(-0.370132 -0.824606 0)
(-0.271919 -0.712193 0)
(-0.223808 -0.629962 0)
(-0.197502 -0.577547 0)
(-0.183209 -0.545043 0)
(-0.175826 -0.525712 0)
(-0.172319 -0.514536 0)
(-0.248123 0.769275 0)
(0.248367 2.28732 0)
(0.0601442 2.9569 0)
(-0.282354 2.23356 0)
(-0.568284 1.95084 0)
(-0.882057 1.84471 0)
(-1.2291 1.72234 0)
(-1.57326 1.53495 0)
(-1.81505 1.18677 0)
(-1.83175 0.620456 0)
(-1.63276 -0.0459371 0)
(-1.32754 -0.6018 0)
(-0.997233 -0.962215 0)
(-0.694439 -1.14162 0)
(-0.449981 -1.1842 0)
(-0.294068 -1.09611 0)
(-0.206219 -0.934136 0)
(-0.149604 -0.768952 0)
(-0.140973 -0.651948 0)
(-0.147204 -0.58588 0)
(-0.153747 -0.547158 0)
(-0.160758 -0.52447 0)
(-0.167525 -0.511407 0)
(-0.262941 0.736042 0)
(0.207093 2.0915 0)
(-0.16946 3.264 0)
(-0.344864 2.4889 0)
(-0.639124 2.25378 0)
(-0.985098 2.19982 0)
(-1.39257 2.09652 0)
(-1.72951 1.81371 0)
(-1.84662 1.21704 0)
(-1.7104 0.42293 0)
(-1.43098 -0.3308 0)
(-1.07523 -0.922788 0)
(-0.666439 -1.29763 0)
(-0.325904 -1.41495 0)
(-0.0704236 -1.3689 0)
(0.0210934 -1.18921 0)
(0.0360069 -0.973572 0)
(0.00729981 -0.76189 0)
(-0.040776 -0.625828 0)
(-0.0921743 -0.563146 0)
(-0.122516 -0.53093 0)
(-0.142593 -0.512235 0)
(-0.156677 -0.501088 0)
(-0.252937 0.571816 0)
(0.0435513 2.59929 0)
(-0.614502 3.37368 0)
(-0.429734 2.70124 0)
(-0.752652 2.57531 0)
(-1.09033 2.58521 0)
(-1.4709 2.44241 0)
(-1.70116 1.96601 0)
(-1.69525 1.14904 0)
(-1.51417 0.225932 0)
(-1.20845 -0.641924 0)
(-0.748465 -1.36888 0)
(-0.293218 -1.71633 0)
(0.0356451 -1.70261 0)
(0.268482 -1.52782 0)
(0.320651 -1.2091 0)
(0.261794 -0.934073 0)
(0.143871 -0.691239 0)
(0.0369765 -0.539064 0)
(-0.0522834 -0.505681 0)
(-0.103051 -0.497153 0)
(-0.131626 -0.491448 0)
(-0.149239 -0.486933 0)
(-0.325875 0.875258 0)
(-0.225564 3.00856 0)
(-0.771468 3.34237 0)
(-0.458646 2.85178 0)
(-0.821952 2.87917 0)
(-1.10141 2.92736 0)
(-1.39085 2.68579 0)
(-1.50934 2.025 0)
(-1.4523 1.06547 0)
(-1.25332 -0.00299107 0)
(-0.855559 -1.06867 0)
(-0.37657 -1.87779 0)
(0.0129234 -2.12491 0)
(0.272217 -1.96837 0)
(0.424268 -1.64267 0)
(0.432321 -1.20404 0)
(0.349945 -0.826185 0)
(0.191558 -0.574654 0)
(0.0313373 -0.411102 0)
(-0.0548298 -0.427362 0)
(-0.107083 -0.455191 0)
(-0.133978 -0.467669 0)
(-0.14948 -0.472448 0)
(-0.385814 1.11106 0)
(-0.0899928 3.28894 0)
(-0.654913 3.29902 0)
(-0.402718 2.9861 0)
(-0.79 3.14206 0)
(-0.986626 3.18096 0)
(-1.16497 2.83032 0)
(-1.20247 2.03425 0)
(-1.11855 0.944025 0)
(-0.881672 -0.277384 0)
(-0.462675 -1.49402 0)
(-0.0962984 -2.29494 0)
(0.15324 -2.42911 0)
(0.30109 -2.14787 0)
(0.333004 -1.68767 0)
(0.284437 -1.15918 0)
(0.211189 -0.719636 0)
(0.0752951 -0.429861 0)
(-0.0821133 -0.289236 0)
(-0.111892 -0.365651 0)
(-0.138292 -0.423499 0)
(-0.15032 -0.450236 0)
(-0.157238 -0.462315 0)
(-0.420926 1.1881 0)
(0.223058 3.51656 0)
(-0.456143 3.34482 0)
(-0.278451 3.14801 0)
(-0.671413 3.35916 0)
(-0.78665 3.33667 0)
(-0.874683 2.87755 0)
(-0.856674 2.00016 0)
(-0.753131 0.814933 0)
(-0.505346 -0.534287 0)
(-0.172822 -1.84697 0)
(0.0195149 -2.55564 0)
(0.0811498 -2.57513 0)
(0.104295 -2.17159 0)
(0.00642357 -1.62431 0)
(-0.0723365 -1.07353 0)
(-0.10426 -0.621154 0)
(-0.213329 -0.30557 0)
(-0.248084 -0.243718 0)
(-0.197869 -0.356159 0)
(-0.183541 -0.418782 0)
(-0.173857 -0.447506 0)
(-0.16856 -0.46066 0)
(-0.444706 1.2116 0)
(0.445955 3.64373 0)
(-0.153835 3.58773 0)
(-0.118861 3.32964 0)
(-0.501904 3.53833 0)
(-0.551705 3.42055 0)
(-0.5985 2.85149 0)
(-0.535804 1.91929 0)
(-0.419345 0.66664 0)
(-0.160397 -0.75883 0)
(-0.0175048 -2.02102 0)
(-0.00952227 -2.60702 0)
(-0.143833 -2.51081 0)
(-0.25746 -2.0252 0)
(-0.416277 -1.47818 0)
(-0.461675 -0.967205 0)
(-0.473943 -0.539655 0)
(-0.499783 -0.291088 0)
(-0.362898 -0.317745 0)
(-0.267757 -0.40348 0)
(-0.221283 -0.443244 0)
(-0.193709 -0.461334 0)
(-0.177548 -0.468698 0)
(-0.448354 1.20721 0)
(0.401282 3.17444 0)
(0.218956 3.87933 0)
(0.0134824 3.5333 0)
(-0.304214 3.69127 0)
(-0.309302 3.46716 0)
(-0.34839 2.79942 0)
(-0.252783 1.81817 0)
(-0.147847 0.548378 0)
(0.0587678 -0.898792 0)
(0.0428941 -2.0259 0)
(-0.107537 -2.46502 0)
(-0.381501 -2.28989 0)
(-0.5632 -1.82838 0)
(-0.686259 -1.34688 0)
(-0.738972 -0.907436 0)
(-0.728502 -0.578713 0)
(-0.556586 -0.443737 0)
(-0.395209 -0.455804 0)
(-0.293977 -0.478551 0)
(-0.236744 -0.485537 0)
(-0.201429 -0.486614 0)
(-0.179311 -0.484089 0)
(-0.443674 1.17737 0)
(0.357907 2.91242 0)
(0.260181 4.04353 0)
(0.101393 3.73953 0)
(-0.104774 3.81365 0)
(-0.0769617 3.49214 0)
(-0.103421 2.75196 0)
(-0.00884628 1.72872 0)
(0.0776265 0.449382 0)
(0.202581 -0.941703 0)
(0.0699662 -1.9226 0)
(-0.151007 -2.22044 0)
(-0.450118 -2.03402 0)
(-0.636501 -1.67037 0)
(-0.738282 -1.28837 0)
(-0.743585 -0.954936 0)
(-0.63015 -0.730221 0)
(-0.47878 -0.625901 0)
(-0.360373 -0.578258 0)
(-0.280403 -0.550864 0)
(-0.228807 -0.530778 0)
(-0.194469 -0.515579 0)
(-0.171836 -0.502625 0)
(-0.44295 1.10511 0)
(0.392121 2.96195 0)
(0.0871567 4.03955 0)
(0.204435 3.87362 0)
(0.0921774 3.86908 0)
(0.146021 3.48801 0)
(0.153216 2.71745 0)
(0.219783 1.67034 0)
(0.294167 0.400981 0)
(0.315051 -0.890581 0)
(0.136473 -1.75347 0)
(-0.0835789 -1.98232 0)
(-0.316718 -1.82243 0)
(-0.478332 -1.55395 0)
(-0.553029 -1.27323 0)
(-0.531355 -1.03313 0)
(-0.450617 -0.857424 0)
(-0.366668 -0.739615 0)
(-0.295153 -0.659949 0)
(-0.24185 -0.60671 0)
(-0.202862 -0.569326 0)
(-0.175037 -0.542017 0)
(-0.15576 -0.520357 0)
(-0.39381 1.15012 0)
(0.424046 2.78614 0)
(0.170234 3.93956 0)
(0.37327 3.90948 0)
(0.296543 3.83627 0)
(0.372317 3.44594 0)
(0.420783 2.68267 0)
(0.453931 1.64717 0)
(0.487431 0.407133 0)
(0.425173 -0.785306 0)
(0.238538 -1.57282 0)
(0.0480873 -1.79212 0)
(-0.122206 -1.6641 0)
(-0.248904 -1.45743 0)
(-0.30784 -1.24916 0)
(-0.312185 -1.06416 0)
(-0.291052 -0.912386 0)
(-0.256247 -0.793545 0)
(-0.221208 -0.706712 0)
(-0.190428 -0.643703 0)
(-0.165585 -0.59733 0)
(-0.146679 -0.562291 0)
(-0.132915 -0.534504 0)
(-0.264713 1.08617 0)
(0.366198 2.44737 0)
(0.474276 3.80209 0)
(0.581288 3.90622 0)
(0.507252 3.76843 0)
(0.590277 3.37977 0)
(0.661832 2.64371 0)
(0.655821 1.65473 0)
(0.633774 0.45627 0)
(0.522836 -0.65494 0)
(0.348963 -1.40132 0)
(0.187465 -1.63657 0)
(0.0502136 -1.54027 0)
(-0.0500583 -1.36711 0)
(-0.113073 -1.20212 0)
(-0.148744 -1.05177 0)
(-0.159443 -0.919649 0)
(-0.156305 -0.812263 0)
(-0.146063 -0.728122 0)
(-0.133828 -0.663453 0)
(-0.122394 -0.613655 0)
(-0.112889 -0.574726 0)
(-0.105602 -0.543624 0)
(-0.109569 0.93329 0)
(0.289707 2.14157 0)
(0.56165 3.60373 0)
(0.704051 3.89117 0)
(0.68957 3.72693 0)
(0.766095 3.30832 0)
(0.820188 2.60428 0)
(0.772473 1.69033 0)
(0.716799 0.537072 0)
(0.601967 -0.524617 0)
(0.454779 -1.25182 0)
(0.319232 -1.50518 0)
(0.198667 -1.43414 0)
(0.105924 -1.28345 0)
(0.0339551 -1.14383 0)
(-0.016262 -1.01604 0)
(-0.0480192 -0.903101 0)
(-0.065567 -0.807863 0)
(-0.0738308 -0.730301 0)
(-0.0768715 -0.668231 0)
(-0.0773191 -0.618803 0)
(-0.076809 -0.579178 0)
(-0.0759722 -0.547128 0)
(0.0154459 0.794893 0)
(0.311751 2.10256 0)
(0.407539 3.29191 0)
(0.727361 3.80812 0)
(0.800631 3.69021 0)
(0.851871 3.25433 0)
(0.859057 2.60089 0)
(0.800798 1.74527 0)
(0.768134 0.626772 0)
(0.679154 -0.405933 0)
(0.559986 -1.13078 0)
(0.446427 -1.39269 0)
(0.332765 -1.33509 0)
(0.237118 -1.19882 0)
(0.15793 -1.07441 0)
(0.0945803 -0.965378 0)
(0.0478977 -0.869018 0)
(0.0151069 -0.786349 0)
(-0.00739107 -0.717269 0)
(-0.0227708 -0.66046 0)
(-0.0332694 -0.614079 0)
(-0.0407032 -0.576248 0)
(-0.0458288 -0.545061 0)
(0.0915903 0.510487 0)
(0.332476 2.01102 0)
(0.374776 2.88311 0)
(0.70678 3.62048 0)
(0.828429 3.62118 0)
(0.838421 3.23792 0)
(0.807416 2.62743 0)
(0.805188 1.77725 0)
(0.826915 0.686053 0)
(0.768188 -0.316726 0)
(0.677895 -1.03766 0)
(0.574296 -1.28959 0)
(0.456223 -1.2312 0)
(0.351792 -1.10451 0)
(0.262092 -0.995434 0)
(0.188009 -0.902997 0)
(0.129789 -0.821873 0)
(0.0851961 -0.751743 0)
(0.0515903 -0.69228 0)
(0.0264387 -0.642487 0)
(0.00767103 -0.601069 0)
(-0.0064343 -0.566786 0)
(-0.0167752 -0.538063 0)
(0.0619967 0.191404 0)
(0.328565 1.88946 0)
(0.437386 2.82519 0)
(0.599323 3.37312 0)
(0.783032 3.53312 0)
(0.789623 3.25497 0)
(0.805991 2.63711 0)
(0.91178 1.72325 0)
(0.949052 0.706422 0)
(0.88508 -0.238723 0)
(0.821011 -0.958067 0)
(0.70824 -1.17986 0)
(0.569769 -1.11352 0)
(0.451269 -0.998947 0)
(0.350272 -0.906182 0)
(0.266013 -0.8301 0)
(0.198036 -0.764115 0)
(0.144122 -0.706956 0)
(0.101949 -0.658012 0)
(0.0692356 -0.616458 0)
(0.0439906 -0.581366 0)
(0.0245016 -0.551838 0)
(0.00976898 -0.526779 0)
(-0.102352 0.127534 0)
(0.270105 1.68798 0)
(0.474126 2.69986 0)
(0.623009 3.24843 0)
(0.755377 3.45414 0)
(0.85232 3.22034 0)
(1.00769 2.47073 0)
(1.11692 1.62199 0)
(1.08777 0.817769 0)
(1.02875 -0.164639 0)
(0.992354 -0.875961 0)
(0.839068 -1.04159 0)
(0.669784 -0.972148 0)
(0.534236 -0.877558 0)
(0.421295 -0.805747 0)
(0.327819 -0.747901 0)
(0.252046 -0.697955 0)
(0.191183 -0.654468 0)
(0.142758 -0.6168 0)
(0.104509 -0.584329 0)
(0.0744298 -0.556429 0)
(0.0507694 -0.532503 0)
(0.0324182 -0.511798 0)
(-0.199207 0.0859893 0)
(0.180601 1.3888 0)
(0.45236 2.47704 0)
(0.667325 3.09176 0)
(0.853926 3.30951 0)
(1.02866 3.04933 0)
(1.17147 2.38868 0)
(1.21617 1.65548 0)
(1.19546 0.893121 0)
(1.22001 -0.158828 0)
(1.15776 -0.74613 0)
(0.94262 -0.862367 0)
(0.745186 -0.805275 0)
(0.594502 -0.741823 0)
(0.471972 -0.696018 0)
(0.371883 -0.658664 0)
(0.290918 -0.625859 0)
(0.225631 -0.596713 0)
(0.17323 -0.570838 0)
(0.131354 -0.547921 0)
(0.0979476 -0.527655 0)
(0.071217 -0.509729 0)
(0.049972 -0.493704 0)
(-0.139798 0.120044 0)
(-0.0099131 0.923273 0)
(0.362386 2.20002 0)
(0.62873 2.85856 0)
(0.860685 3.10465 0)
(1.05676 2.90123 0)
(1.18157 2.33017 0)
(1.2506 1.63745 0)
(1.3122 0.833685 0)
(1.41037 -0.125362 0)
(1.25543 -0.565973 0)
(0.993115 -0.645278 0)
(0.783296 -0.621191 0)
(0.625391 -0.597636 0)
(0.498914 -0.580963 0)
(0.396523 -0.565662 0)
(0.313769 -0.550712 0)
(0.246835 -0.536193 0)
(0.192739 -0.522227 0)
(0.149054 -0.508917 0)
(0.113722 -0.496319 0)
(0.0849738 -0.484427 0)
(0.061634 -0.473134 0)
(-0.0996566 0.23649 0)
(-0.221426 0.814701 0)
(0.192275 1.86512 0)
(0.507468 2.57869 0)
(0.771677 2.86482 0)
(0.988056 2.73735 0)
(1.14727 2.22833 0)
(1.28423 1.51604 0)
(1.45681 0.607074 0)
(1.46857 -0.057017 0)
(1.23316 -0.337831 0)
(0.974533 -0.41371 0)
(0.775942 -0.437682 0)
(0.623245 -0.454778 0)
(0.500514 -0.46662 0)
(0.401035 -0.47318 0)
(0.320269 -0.475783 0)
(0.254541 -0.475481 0)
(0.20097 -0.472998 0)
(0.15721 -0.468912 0)
(0.121326 -0.46367 0)
(0.0916956 -0.457605 0)
(0.0673001 -0.450976 0)
(-0.0904301 0.397995 0)
(-0.317793 0.814326 0)
(-0.153319 1.44895 0)
(0.289762 2.25904 0)
(0.605176 2.59919 0)
(0.864312 2.51887 0)
(1.08883 2.04912 0)
(1.32445 1.29312 0)
(1.46038 0.56167 0)
(1.34253 0.116716 0)
(1.1107 -0.0976589 0)
(0.89731 -0.203229 0)
(0.727122 -0.272 0)
(0.590288 -0.322507 0)
(0.478257 -0.359248 0)
(0.386347 -0.385638 0)
(0.310972 -0.404301 0)
(0.249058 -0.417002 0)
(0.19808 -0.425036 0)
(0.155939 -0.429428 0)
(0.120972 -0.431011 0)
(0.0918269 -0.430473 0)
(0.0677399 -0.428436 0)
(-0.0847568 0.585747 0)
(-0.315759 0.903625 0)
(-0.349854 1.27771 0)
(-0.0488002 1.8404 0)
(0.336892 2.22574 0)
(0.667586 2.17625 0)
(0.971894 1.71869 0)
(1.23049 1.11658 0)
(1.26339 0.614644 0)
(1.12283 0.294022 0)
(0.945853 0.0990661 0)
(0.785136 -0.0338006 0)
(0.647899 -0.132155 0)
(0.532243 -0.206662 0)
(0.435312 -0.26337 0)
(0.354471 -0.30644 0)
(0.287266 -0.338867 0)
(0.23143 -0.362814 0)
(0.184968 -0.380061 0)
(0.146193 -0.391986 0)
(0.113799 -0.399765 0)
(0.0867581 -0.404417 0)
(0.0644989 -0.406863 0)
(-0.0671563 0.759664 0)
(-0.23819 1.0465 0)
(-0.325971 1.23678 0)
(-0.18849 1.56096 0)
(0.133395 1.82532 0)
(0.495621 1.77308 0)
(0.819022 1.44125 0)
(0.994873 1.02985 0)
(0.987821 0.681977 0)
(0.889348 0.429783 0)
(0.770725 0.241104 0)
(0.654911 0.0949572 0)
(0.549009 -0.0194504 0)
(0.455796 -0.109947 0)
(0.375783 -0.181565 0)
(0.30808 -0.237944 0)
(0.251244 -0.281702 0)
(0.203621 -0.315109 0)
(0.163669 -0.34018 0)
(0.130127 -0.358583 0)
(0.101984 -0.371797 0)
(0.0784785 -0.381122 0)
(0.0591094 -0.387654 0)
(-0.0446573 0.878602 0)
(-0.138643 1.15326 0)
(-0.188826 1.24063 0)
(-0.112306 1.39227 0)
(0.118448 1.52554 0)
(0.403536 1.47162 0)
(0.630313 1.25124 0)
(0.734022 0.978331 0)
(0.73101 0.72793 0)
(0.674933 0.515868 0)
(0.598436 0.337739 0)
(0.516596 0.189648 0)
(0.437556 0.0673976 0)
(0.365804 -0.0332652 0)
(0.303366 -0.115879 0)
(0.250526 -0.182688 0)
(0.206243 -0.235556 0)
(0.168805 -0.276587 0)
(0.136948 -0.307891 0)
(0.109801 -0.331499 0)
(0.0866877 -0.349203 0)
(0.0671193 -0.362428 0)
(0.050787 -0.372341 0)
(-0.0263899 0.945664 0)
(-0.0591993 1.20286 0)
(-0.0557161 1.23455 0)
(0.0116931 1.28384 0)
(0.161884 1.32372 0)
(0.339112 1.27396 0)
(0.471187 1.13258 0)
(0.530473 0.946443 0)
(0.531152 0.75287 0)
(0.49643 0.569715 0)
(0.443426 0.404319 0)
(0.383609 0.25894 0)
(0.324538 0.133094 0)
(0.270492 0.0253908 0)
(0.223637 -0.0658734 0)