/*--------------------------------*- C++ -*----------------------------------*\
  =========                 |
  \\      /  F ield         | OpenFOAM: The Open Source CFD Toolbox
   \\    /   O peration     | Website:  https://openfoam.org
    \\  /    A nd           | Version:  13
     \\/     M anipulation  |
\*---------------------------------------------------------------------------*/
FoamFile
{
    format      ascii;
    class       volScalarField;
    location    "0.85";
    object      alpha.water;
}
// * * * * * * * * * * * * * * * * * * * * * * * * * * * * * * * * * * * * * //

dimensions      [];

internalField   nonuniform List<scalar> 
2268
(
1
1
1
1
1
1
1
1
1
1
1
1
1
1
0.999982
0.978894
0.950895
0.991018
0.996163
0.994779
0.990053
0.994112
0.998985
1
1
1
1
1
1
1
1
1
1
1
1
1
1
0.999798
0.97273
0.951044
0.950847
0.96672
0.962194
0.95898
0.984601
0.999964
1
1
1
1
1
1
1
1
1
1
1
1
1
1
0.999996
0.99701
0.967754
0.950674
0.950654
0.95075
0.96307
0.996133
0.999964
1
1
1
1
1
1
1
1
1
1
1
1
1
1
1
0.999998
0.99927
0.99076
0.993054
0.999935
1
1
0.999968
1
1
1
1
1
0.999999
0.999999
1
1
1
1
1
1
1
1
1
1
1
1
1
1
1
1
1
1
1
1
1
0.999987
0.999945
0.999928
0.999994
1
1
1
1
1
1
1
1
1
1
1
1
1
0.99999
1
1
1
1
1
0.999966
0.999758
0.999803
0.999984
0.999997
0.999997
0.999998
0.999999
1
1
1
1
1
1
0.999999
0.999999
1
0.999959
1
1
1
1
1
0.998755
0.996072
0.999921
0.999964
0.999871
0.999892
0.999919
0.999974
0.999995
0.999999
0.999999
0.999999
0.999999
0.999998
0.999965
0.999966
0.999947
0.999953
0.98955
0.98297
0.977983
0.9816
0.986744
0.9773
0.937649
0.912941
0.85246
0.797599
0.745559
0.700017
0.699775
0.699775
0.700153
0.796901
0.855973
0.855973
0.855973
0.995022
0.995504
0.995171
0.995019
0.994196
0.993878
0.940144
0.780432
0.658794
0.685381
0.716657
0.776505
0.738505
0.774656
0.78171
0.782819
0.733308
0.656557
0.812323
0.995855
0.995855
0.962069
0.911512
0.987787
0.992594
0.852012
0.51714
0.461364
0.627661
0.753314
0.777276
0.778465
0.779938
0.78118
0.781916
0.637675
0.636191
0.730929
0.995855
0.967433
0.735881
0.771895
0.987315
0.986535
0.739457
0.375068
0.295086
0.262699
0.36773
0.649069
0.757768
0.778766
0.779823
0.781162
0.763348
0.634633
0.634327
0.995534
0.848709
0.735803
0.736744
0.986372
0.978972
0.632167
0.210307
0.122819
0.118985
0.128901
0.199758
0.30731
0.419917
0.633765
0.780254
0.77859
0.634494
0.634633
0.981787
0.893064
0.735815
0.782168
0.974641
0.960646
0.483048
0.10931
0.112152
0.115344
0.119274
0.137599
0.159867
0.182134
0.366637
0.778423
0.777828
0.681853
0.758809
0.978369
0.985019
0.81876
0.724122
0.934212
0.928506
0.35189
0.107013
0.108903
0.112264
0.116707
0.187142
0.392882
0.633254
0.687672
0.701493
0.776562
0.774437
0.773101
0.985162
0.988681
0.958649
0.723364
0.87907
0.895914
0.296175
0.107047
0.106994
0.145716
0.125922
0.191217
0.578598
0.709045
0.737886
0.759748
0.774345
0.76481
0.717835
1
1
1
1
0.999554
0.99986
0.999862
0.999916
0.999259
0.997107
0.984363
0.963995
0.967603
0.991476
0.999992
0.99998
0.999999
0.999954
0.996507
0.970194
0.96233
0.994541
0.999952
0.784616
0.892315
0.92101
0.854059
0.782037
0.863137
0.999859
0.999796
0.947033
0.719988
0.42538
0.295032
0.29842
0.44332
0.604502
0.670159
0.693671
0.691317
0.522329
0.394175
0.370049
0.462823
0.7628
0.251381
0.230781
0.238041
0.583444
0.896245
0.910686
0.922825
0.648902
0.295365
0.0489609
0.00962313
0.00444953
0.00420667
0.00392303
0.0038974
0.0279428
0.0750479
0.106314
0.133448
0.169387
0.10799
0.0432137
0.0738572
0.0829767
0.0921328
0.532519
0.84693
0.8819
0.582112
0.146083
0.0325864
0.0306062
0.0918586
0.127263
0.0270219
0.00514246
0.00389381
0.00389381
0.00389381
0.00399325
0.00462249
0.0453003
0.288112
0.280697
0.0221922
0.011315
0.0796138
0.192231
0.379474
0.234173
0.105945
0.0307003
0.00219598
0.00239534
0.0286189
0.137477
0.14716
0.148824
0.147095
0.0257196
0.00858979
0.00399299
0.00464403
0.00568404
0.0964676
0.292778
0.293748
0.214403
0.0113032
0.0908356
0.0936841
0.0161823
0.000956197
0.001382
0.000281318
0.000101232
6.98958e-05
0.000112922
0.00265508
0.0938919
0.152081
0.153673
0.153673
0.153673
0.067356
0.0383963
0.0260708
0.176698
0.293449
0.292718
0.290915
0.0396271
0.0684187
0.00423587
0.00104331
0.00022762
5.41839e-05
1.74817e-05
6.54373e-06
4.42289e-06
1.39977e-05
2.21906e-05
0.000306946
0.00298387
0.0975568
0.153509
0.153293
0.152914
0.152912
0.106213
0.207177
0.2808
0.290915
0.282378
0.0524668
0.0285016
0.000921412
0.000199312
2.85722e-05
4.35093e-06
1.07516e-06
7.42247e-07
2.09203e-06
3.76064e-07
7.84185e-06
6.11032e-07
1.33693e-06
5.004e-05
1.9539e-06
0.0501552
0.13095
0.1029
0.0134646
0.000492294
0.00422401
0.17908
0.267357
0.090964
0.00216647
0.000217793
5.18275e-05
4.53677e-06
3.33126e-07
5.84275e-08
1.22736e-08
3.10604e-07
3.31067e-07
7.40434e-08
6.59453e-08
5.67941e-08
9.12702e-08
2.56993e-07
9.59655e-07
3.53315e-06
1.2695e-05
4.30998e-05
0.000156144
0.000530327
0.00216796
0.0893782
0.176328
0.000925724
5.46849e-05
7.74766e-06
5.41246e-07
2.55982e-08
4.59274e-09
2.99847e-09
2.90714e-09
7.22365e-08
2.56407e-07
9.56124e-08
4.15007e-08
5.17407e-08
1.17766e-07
4.71542e-07
2.12154e-06
1.4037e-05
7.02226e-05
0.000161211
0.000357073
0.000385956
0.000607806
0.0739769
0.000430821
9.33297e-05
4.75425e-06
8.77822e-08
4.27373e-09
2.92975e-09
2.89037e-09
2.88993e-09
3.24095e-09
1.36275e-07
1.35429e-07
3.85715e-08
1.2792e-07
1.53962e-07
4.38418e-07
3.28377e-06
0.000168923
0.00060575
0.00060575
0.000512585
0.000301394
0.000246302
0.00012807
0.000604653
0.000574362
1.45662e-05
3.52572e-07
3.87847e-09
3.10526e-09
2.89073e-09
2.88983e-09
2.89069e-09
5.54885e-08
6.75534e-08
1.40671e-08
1.558e-07
1.79183e-07
9.31154e-07
1.07881e-05
9.92058e-05
0.000590906
0.00060575
0.000597414
0.000338325
0.00025455
9.06189e-05
0.000205476
0.000748733
0.000196796
5.19255e-07
2.54684e-07
5.28813e-09
5.04688e-09
2.89069e-09
7.35883e-09
8.9138e-09
6.8392e-09
2.15512e-09
2.80452e-08
4.20922e-08
9.06784e-09
1.31063e-05
0.000121482
0.000122414
0.000167589
0.000389044
0.000970764
0.000994711
0.00096077
4.3602e-05
0.000739035
0.000699178
8.47553e-05
1.68257e-06
7.87497e-08
2.24828e-08
5.88047e-09
1.76425e-09
6.5005e-10
1.89232e-10
1.18173e-10
4.57903e-09
5.03096e-09
8.3848e-09
2.78763e-07
1.00048e-08
0.000245348
0.000403816
0.000401302
0.000430584
0.00100402
0.00100402
4.30438e-06
0.000364069
0.000601564
0.000288761
8.80793e-06
7.69329e-07
9.75511e-08
1.13753e-08
1.43936e-09
2.07765e-10
1.18173e-10
1.18173e-10
1.68173e-08
9.65746e-08
4.74415e-08
3.4341e-08
8.25976e-09
2.24853e-09
0.000275168
0.000653179
0.000725616
0.000765366
0.000963567
1.05077e-06
9.54008e-06
0.000104126
0.000215795
5.12692e-05
1.25963e-06
1.97279e-07
2.53253e-08
2.87884e-09
3.34923e-10
1.30434e-10
1.18173e-10
6.07807e-08
1.06509e-07
1.07181e-07
6.37976e-08
6.72183e-09
1.56935e-09
2.16641e-09
0.000259877
0.000635968
0.000486896
1.74972e-05
9.07242e-08
1.81369e-06
1.00436e-05
1.55766e-05
2.95712e-05
6.33463e-06
1.82718e-07
2.61075e-08
3.33633e-09
4.12298e-10
1.3932e-10
1.13429e-10
1.58577e-08
1.05854e-07
1.07181e-07
8.66796e-08
8.98704e-09
8.20533e-10
3.96282e-09
4.31155e-09
0.00013143
0.000133474
1.40997e-05
2.13533e-08
1.91097e-07
2.63067e-06
2.69946e-06
2.9486e-06
2.11089e-06
2.1316e-07
1.18075e-08
1.62856e-09
3.08363e-10
1.09206e-10
1.00139e-10
1.04053e-10
2.47502e-08
6.14172e-08
4.09819e-08
4.28414e-09
5.22798e-10
1.01345e-08
2.54448e-07
9.03524e-10
6.10855e-10
4.64092e-10
5.24518e-09
2.4284e-08
5.73584e-07
5.60581e-07
3.41469e-07
1.21084e-07
3.1856e-08
3.05084e-09
4.91399e-10
1.51482e-10
8.19458e-11
9.68722e-11
1.00982e-10
1.18911e-10
6.97246e-10
1.92706e-09
1.62361e-09
5.09889e-10
4.79662e-10
3.68784e-09
7.83455e-10
7.11934e-10
6.72916e-10
1.73252e-09
6.40791e-09
1.01947e-07
9.64362e-08
5.2633e-08
1.69191e-08
3.53018e-09
6.94309e-10
1.69527e-10
5.21038e-11
4.30225e-11
9.30961e-11
2.01608e-10
3.06727e-10
4.24286e-10
4.83585e-10
4.88479e-10
3.32868e-10
9.60728e-11
2.49284e-11
1.13235e-09
1.94152e-09
1.92281e-09
3.34558e-10
9.57294e-10
1.50218e-08
1.39628e-08
7.10513e-09
2.26101e-09
5.60554e-10
1.97674e-10
5.5555e-11
1.40607e-11
2.39487e-11
8.55947e-11
2.4402e-10
4.73661e-10
5.22731e-10
5.20063e-10
4.29193e-10
2.49283e-10
9.81058e-11
2.26867e-11
3.3451e-11
1.69385e-10
2.09038e-10
4.81379e-11
1.18299e-10
1.90861e-09
1.73919e-09
8.49107e-10
3.21611e-10
1.45621e-10
5.18529e-11
1.01495e-11
4.5655e-12
1.47124e-11
6.7323e-11
2.10878e-10
4.07399e-10
4.57547e-10
4.26928e-10
3.22976e-10
1.79898e-10
7.39253e-11
2.11556e-11
5.76373e-12
6.37887e-12
1.22839e-11
7.14111e-12
4.28257e-11
2.25169e-10
2.01736e-10
1.16564e-10
7.26278e-11
3.27445e-11
7.95031e-12
1.26918e-12
1.64692e-12
7.49974e-12
3.41822e-11
1.12109e-10
2.24277e-10
2.42176e-10
2.20116e-10
1.62939e-10
9.1645e-11
3.92513e-11
1.34783e-11
3.83985e-12
1.40913e-12
1.13119e-12
9.7605e-13
2.60543e-11
3.32433e-11
3.00085e-11
2.87284e-11
1.46708e-11
4.22239e-12
8.36864e-13
1.69928e-13
4.54163e-13
2.1801e-12
8.55511e-12
2.69544e-11
5.81066e-11
6.30888e-11
5.71401e-11
4.28116e-11
2.48283e-11
1.1132e-11
4.19018e-12
1.42072e-12
4.47479e-13
1.9116e-13
1.16812e-13
5.90257e-12
7.8801e-12
6.8395e-12
4.47839e-12
1.59433e-12
3.9693e-13
8.03673e-14
2.45507e-14
7.28769e-14
2.86333e-13
9.09412e-13
2.53394e-12
5.94864e-12
7.171e-12
6.54437e-12
4.98449e-12
2.96463e-12
1.34655e-12
5.20276e-13
1.94445e-13
6.57177e-14
2.68994e-14
1.25701e-14
5.4221e-13
1.01159e-12
7.92934e-13
3.9198e-13
1.33042e-13
3.43452e-14
7.15257e-15
3.40834e-15
7.15482e-15
2.06466e-14
5.36552e-14
1.25629e-13
3.01406e-13
4.09634e-13
3.82001e-13
2.9302e-13
1.73533e-13
7.55909e-14
2.69861e-14
1.00575e-14
3.92325e-15
2.63306e-15
1.25142e-15
5.11689e-14
8.12329e-14
6.00058e-14
2.99301e-14
1.04704e-14
2.71885e-15
5.97526e-16
4.18847e-16
7.02753e-16
1.59504e-15
3.57214e-15
7.17564e-15
1.55139e-14
1.97865e-14
1.8561e-14
1.38652e-14
7.77782e-15
3.10934e-15
9.36839e-16
2.88514e-16
1.76322e-16
2.22519e-16
1.16249e-16
4.81803e-15
6.23111e-15
4.42921e-15
2.1704e-15
7.63936e-16
1.97768e-16
4.62245e-17
4.2385e-17
7.53645e-17
1.55795e-16
3.12398e-16
5.70184e-16
1.05379e-15
1.15057e-15
1.03878e-15
7.17163e-16
3.66606e-16
1.33317e-16
3.26282e-17
9.77702e-18
1.175e-17
6.0103e-17
1.01008e-17
4.19852e-16
4.51582e-16
3.05441e-16
1.46535e-16
5.17273e-17
1.33175e-17
3.25529e-18
3.52964e-18
7.26974e-18
1.49534e-17
2.79327e-17
4.86485e-17
7.60196e-17
7.56506e-17
6.30591e-17
3.93702e-17
1.81456e-17
5.91861e-18
1.11999e-18
7.85081e-19
3.19435e-18
4.11508e-17
8.23639e-19
3.34388e-17
3.04981e-17
1.95157e-17
9.23283e-18
3.26539e-18
8.34309e-19
2.12874e-19
2.60518e-19
5.99855e-19
1.26013e-18
2.26344e-18
3.9037e-18
5.2043e-18
4.92982e-18
3.76193e-18
2.13202e-18
8.83981e-19
2.45196e-19
5.20998e-20
1.28901e-19
1.75615e-18
2.49671e-17
6.32593e-20
2.45678e-18
1.92863e-18
1.16078e-18
5.45564e-19
1.93025e-19
4.88169e-20
1.32595e-20
1.83407e-20
4.45361e-20
9.42851e-20
1.65277e-19
2.87097e-19
3.31087e-19
3.01177e-19
2.13125e-19
1.0999e-19
4.0906e-20
8.82342e-21
4.01956e-21
4.21933e-20
7.46238e-19
1.02556e-17
4.59112e-21
1.67736e-19
1.14978e-19
6.45707e-20
3.03702e-20
1.07301e-20
2.67923e-21
7.96455e-22
1.24599e-21
3.1121e-21
6.50509e-21
1.11842e-20
1.93348e-20
1.96776e-20
1.72958e-20
1.13639e-20
5.34362e-21
1.76122e-21
3.08962e-22
4.0808e-22
1.13477e-20
2.02678e-19
2.83348e-18
3.15672e-22
1.07249e-20
6.46329e-21
3.39708e-21
1.60008e-21
5.63207e-22
1.38597e-22
4.59493e-23
8.13088e-23
2.06913e-22
4.23085e-22
7.17172e-22
1.1724e-21
1.14295e-21
9.36488e-22
5.67407e-22
2.44274e-22
6.96173e-23
1.39972e-23
4.93093e-23
1.9844e-21
3.98493e-20
6.1801e-19
2.06006e-23
6.47195e-22
3.43481e-22
1.70227e-22
8.01093e-23
2.80274e-23
6.79279e-24
2.55461e-24
5.0661e-24
1.31094e-23
2.61697e-23
4.39803e-23
6.63676e-23
6.33832e-23
4.82655e-23
2.68525e-23
1.0529e-23
2.49381e-24
8.62619e-25
5.73846e-24
2.51052e-22
6.89641e-21
1.2119e-19
1.2775e-24
3.70931e-23
1.73775e-23
8.15177e-24
3.82637e-24
1.32771e-24
3.16834e-25
1.37975e-25
3.02955e-25
7.94378e-25
1.54852e-24
2.59309e-24
3.5977e-24
3.33082e-24
2.36796e-24
1.2092e-24
4.25348e-25
8.33618e-26
7.20828e-26
6.0464e-25
2.80272e-23
1.14858e-21
2.26826e-20
7.53286e-26
2.03145e-24
8.42768e-25
3.74659e-25
1.75073e-25
6.01106e-26
1.41245e-26
7.2759e-27
1.75758e-26
4.63499e-26
8.82977e-26
1.48e-25
1.87597e-25
1.67081e-25
1.10725e-25
5.17175e-26
1.58136e-26
3.43515e-27
7.72148e-27
9.25066e-26
3.934e-24
2.09765e-22
4.47343e-21
4.22556e-27
1.06919e-25
3.94388e-26
1.661e-26
7.70663e-27
2.61146e-27
6.05037e-28
3.76907e-28
9.97271e-28
2.62812e-27
4.89704e-27
8.24404e-27
9.42514e-27
8.05219e-27
4.94582e-27
2.09173e-27
5.28669e-28
2.11359e-28
1.43355e-27
2.41358e-26
9.10114e-25
4.7435e-23
9.68169e-22
2.25649e-28
5.43565e-27
1.79198e-27
7.14235e-28
3.27932e-28
1.0934e-28
2.50544e-29
1.93542e-29
5.58289e-29
1.46309e-28
2.67057e-28
4.50612e-28
4.59037e-28
3.74879e-28
2.11131e-28
7.93933e-29
1.62316e-29
1.94187e-29
3.6256e-28
7.79974e-27
2.69399e-25
1.15986e-23
2.01664e-22
1.14876e-29
2.68112e-28
7.95164e-29
2.99669e-29
1.35616e-29
4.43418e-30
1.01231e-30
9.93532e-31
3.11396e-30
8.08221e-30
1.4486e-29
2.38055e-29
2.24407e-29
1.68172e-29
8.5759e-30
2.80674e-30
5.94483e-31
2.48254e-30
8.77177e-29
2.21107e-27
6.96287e-26
2.33599e-24
3.31927e-23
5.44177e-31
1.28878e-29
3.4595e-30
1.23468e-30
5.48373e-31
1.75154e-31
3.98187e-32
5.17603e-32
1.74881e-31
4.48004e-31
7.89987e-31
1.2287e-30
1.09744e-30
7.35068e-31
3.3349e-31
9.23449e-32
2.92696e-32
3.86133e-31
1.546e-29
4.19904e-28
1.17406e-26
3.11277e-25
3.78006e-24
1.88107e-32
6.01691e-31
1.36917e-31
4.48619e-32
2.0024e-32
5.70091e-33
1.1712e-33
1.77425e-33
9.28841e-33
2.46323e-32
4.18442e-32
5.83542e-32
5.06851e-32
3.07415e-32
1.1822e-32
1.97027e-33
1.06916e-33
4.7942e-32
1.67591e-30
4.48709e-29
1.09843e-27
2.54769e-26
2.93965e-25
1.80781e-32
1.8335e-32
1.28986e-32
5.43713e-33
1.90436e-33
9.90759e-34
9.11883e-34
9.11883e-34
9.11883e-34
1.19423e-33
2.32369e-33
4.15974e-33
2.44743e-33
1.13869e-33
6.32228e-34
5.83379e-34
5.83379e-34
2.57573e-33
7.1293e-32
1.7828e-30
3.89213e-29
8.84604e-28
1.0121e-26
0.99995
0.999947
0.999947
0.999947
0.865876
0.864072
0.851294
0.858491
0.124413
0.361335
0.695671
0.802442
0.0164799
0.21647
0.672197
0.803546
0.0105494
0.0490804
0.0445195
0.0130903
0.00555759
0.00548831
0.00538878
0.00581447
0.00530789
0.00528118
0.00526928
0.00530135
0.00528351
0.00526928
0.00526928
0.0052693
0.172774
0.0201666
0.00526928
0.0114859
0.164213
0.184249
0.259965
0.282124
7.14952e-05
7.02773e-05
6.81063e-05
0.0319299
6.29599e-05
3.95896e-05
1.21509e-05
1.17916e-05
8.63197e-05
4.5055e-05
5.04481e-06
1.54071e-06
0.00100397
0.000740992
1.61097e-05
4.72881e-07
0.000983031
0.000951164
0.000818044
1.0354e-06
0.000405046
0.00092921
0.000882391
0.000175252
4.64092e-10
4.23305e-05
0.000158899
5.60616e-05
4.33554e-10
4.26632e-10
4.24542e-10
4.23427e-10
5.61511e-10
4.33364e-10
4.25362e-10
4.21597e-10
1.3704e-09
7.4294e-10
5.12134e-10
4.82095e-10
2.3646e-10
2.70032e-10
3.46784e-10
3.97509e-10
1.47048e-11
1.40135e-11
9.89749e-12
8.89763e-12
1.14774e-12
1.26081e-12
1.59688e-12
2.31458e-12
1.31123e-13
1.3146e-13
1.351e-13
1.5386e-13
2.02419e-14
2.09331e-14
2.33772e-14
3.12496e-14
2.65569e-15
2.94175e-15
3.99291e-15
6.27825e-15
3.52404e-16
5.81222e-16
1.08642e-15
1.99819e-15
1.67138e-16
3.35298e-16
7.06062e-16
1.3581e-15
1.22459e-16
2.47364e-16
5.23478e-16
9.60687e-16
7.28801e-17
1.43225e-16
2.95848e-16
5.00915e-16
2.91702e-17
5.58462e-17
1.12288e-16
1.80067e-16
7.98267e-18
1.51517e-17
3.01075e-17
4.72322e-17
1.75139e-18
3.34145e-18
6.61156e-18
1.02156e-17
3.45864e-19
6.62481e-19
1.30385e-18
1.9839e-18
6.51122e-20
1.24765e-19
2.46417e-19
3.72986e-19
1.2858e-20
2.47238e-20
4.76878e-20
7.21076e-20
2.73478e-21
5.10485e-21
9.19201e-21
1.58922e-20
5.37738e-22
9.36838e-22
1.92556e-21
6.21246e-21
8.12977e-23
1.51474e-22
6.09192e-22
4.32453e-21
9.0241e-24
2.5905e-23
2.51275e-22
2.5313e-21
7.59866e-25
4.87932e-24
7.56774e-23
8.42096e-22
3.02447e-26
5.22525e-25
9.23819e-24
1.00925e-22
0.995717
0.98916
0.959936
0.801866
0.875538
0.860598
0.276553
0.0979556
0.155877
0.213924
0.178452
0.24774
0.483008
0.543861
0.469356
0.463942
0.656764
0.686578
0.618752
0.968941
0.574715
0.367538
0.565098
0.871859
0.798518
0.153096
0.0915593
0.215433
0.216009
0.186025
0.144741
0.0522515
0.000513909
0.00147622
0.00242786
0.254693
0.720297
0.826643
0.820899
0.476644
0.411362
0.659906
0.86777
0.664487
0.00395143
0.00642997
0.0187865
0.000387518
0.00038802
0.00039109
0.000399264
0.000420709
0.000442166
0.00104044
0.00164003
0.13259
0.760221
0.840929
0.88068
0.881839
0.885482
0.862461
0.42531
0.00162365
0.000724461
0.000405746
0.000387612
0.000387508
0.00038802
0.00039109
0.000401161
0.00040433
0.000450817
0.00061803
0.00141106
0.0746493
0.249567
0.773947
0.889181
0.889274
0.80868
0.177263
0.00144547
0.00125669
0.00132262
0.00542796
0.00377451
0.000567547
0.000399927
0.000404289
0.000417506
0.000431472
0.000458089
0.0007574
0.00262553
0.00892289
0.332723
0.889253
0.889181
0.743257
0.0289032
0.00161305
0.00144547
0.00779965
0.010429
0.0104434
0.0104116
0.00434317
0.00150226
0.000431491
0.000452987
0.000481022
0.00296811
0.0407675
0.00581978
0.0616791
0.676571
0.885701
0.806468
0.0275788
0.00163485
0.00156965
0.00438969
0.00507215
0.00625911
0.00592068
0.00597462
0.00600987
0.00155354
0.000480708
0.00043457
0.00113134
0.0473015
0.00531359
0.00576227
0.199737
0.858049
0.873932
0.210197
0.00151532
0.00121239
0.00101017
0.000975851
0.000975851
0.000975851
0.000977587
0.00580535
0.00798768
0.00595687
0.000378329
0.000215216
0.047382
0.022326
0.0163234
0.0214517
0.323144
0.871827
0.809106
0.0667198
0.00137396
0.00100418
0.000977915
0.000975796
0.000977356
0.000981047
0.00100691
0.0120707
0.0121662
0.000436166
0.000181178
0.0459106
0.287314
0.285875
0.226418
0.208486
0.569657
0.831141
0.281791
0.00181536
0.00109664
0.000994903
0.000977915
0.000981047
0.00100744
0.00497966
0.0442599
0.0154598
0.000189229
0.000181178
0.0417836
0.290579
0.534011
0.587494
0.589408
0.61745
0.751403
0.208116
0.00240682
0.00129767
0.00105713
0.000995472
0.00101912
0.00129781
0.130669
0.146057
0.0159105
0.000255073
0.000210517
0.0449771
1.6394e-05
0.000177474
0.21525
0.541072
0.609278
0.530697
0.204566
0.22967
0.369433
0.308764
0.112036
0.0362719
0.13703
0.237831
0.159598
0.0099453
7.9515e-05
0.000121156
0.0449944
4.96941e-07
2.93538e-06
4.03974e-05
0.0364908
0.43371
0.542968
0.560248
0.57137
0.571289
0.571356
0.570938
0.569641
0.521265
0.241026
0.000186046
6.66143e-06
1.01261e-05
7.79004e-08
0.0449406
2.92132e-07
2.82763e-07
3.88757e-07
9.12836e-07
0.00683573
0.227753
0.37339
0.33149
0.319635
0.361213
0.304608
0.118235
5.68797e-09
3.46971e-08
3.15223e-06
3.21225e-07
6.81519e-08
7.30764e-08
0.0448567
2.34934e-07
2.10653e-07
2.44725e-07
1.95134e-07
1.60224e-08
9.95675e-08
0.00931924
0.00141743
3.15326e-09
3.04752e-09
3.15157e-09
3.27958e-09
3.74871e-09
5.24824e-09
1.40024e-08
3.10239e-08
4.77558e-08
6.46165e-08
0.0446648
3.9124e-07
2.03808e-07
1.02346e-06
9.97584e-07
9.56653e-09
9.5126e-09
7.56887e-09
2.4843e-09
4.63105e-09
2.59333e-09
6.43606e-09
9.26016e-09
1.98503e-08
5.6227e-08
2.87469e-07
3.77558e-07
9.33134e-08
7.27169e-08
0.0441756
1.95359e-09
4.24374e-10
1.82029e-07
5.50615e-10
4.58937e-07
9.47511e-08
2.22256e-09
1.17804e-09
2.33671e-08
2.44121e-09
6.64824e-08
6.5862e-08
1.73227e-09
5.26436e-07
1.02765e-06
7.77339e-07
6.15058e-06
9.95512e-08
0.037375
4.23288e-10
4.23404e-10
4.24362e-10
4.58747e-10
2.39906e-07
1.55866e-07
1.89235e-08
8.73971e-10
7.44337e-10
1.16271e-09
5.86797e-10
5.85809e-10
5.77372e-10
6.51327e-07
1.02923e-06
5.66283e-08
0.000177068
2.47492e-06
0.00353458
4.21598e-10
4.22512e-10
1.62668e-09
3.36276e-09
1.72655e-10
1.72136e-10
1.12778e-08
5.29061e-09
6.73055e-10
5.77966e-10
5.81379e-10
5.7993e-10
5.77132e-10
5.7993e-10
8.79675e-07
4.96957e-08
0.000232136
1.58459e-05
3.46825e-06
4.23412e-10
5.49257e-10
2.8418e-09
3.8519e-09
1.78162e-09
1.68216e-10
1.38181e-10
5.66249e-10
7.17175e-10
5.78419e-10
8.60007e-10
1.1595e-09
6.84615e-10
5.81198e-10
9.91841e-08
9.87253e-09
0.000232299
2.42999e-05
3.29846e-06
2.98718e-10
3.80665e-10
4.54789e-10
1.72489e-09
1.50472e-09
4.37226e-10
1.36253e-10
1.41616e-10
2.43446e-10
4.19189e-10
8.90089e-10
1.43137e-09
1.07674e-09
6.41777e-10
5.81014e-09
6.85231e-09
0.000185937
1.42991e-05
2.90157e-06
8.25644e-12
5.25897e-12
5.37011e-12
5.54987e-12
5.80273e-12
7.02532e-11
1.33951e-10
1.74896e-10
3.00923e-10
3.52079e-10
4.91486e-10
1.15052e-09
9.1479e-10
6.50438e-10
1.36278e-08
1.99676e-08
2.02822e-08
1.24871e-06
1.55769e-06
2.99486e-12
4.92962e-12
7.57586e-12
1.32389e-11
3.32398e-11
1.03638e-10
1.66977e-10
1.87822e-10
2.20218e-10
2.63694e-10
4.23731e-09
2.57212e-09
5.80134e-09
7.90431e-10
3.50398e-09
1.22184e-07
1.14052e-07
1.18998e-07
2.83606e-06
2.74117e-13
5.00973e-13
1.22625e-12
5.35174e-12
2.76598e-11
1.34405e-10
1.81203e-10
1.79668e-10
1.81128e-10
5.5105e-08
4.89675e-07
3.63342e-07
4.86975e-08
1.17386e-08
5.36707e-08
1.51659e-07
1.48923e-07
5.85721e-06
1.93851e-05
6.35008e-14
1.63438e-13
8.99282e-13
5.39815e-12
5.49082e-11
1.74745e-10
1.74172e-10
1.6248e-10
1.82814e-10
6.90328e-07
8.3502e-07
8.32034e-07
9.04767e-08
3.06677e-07
4.03261e-07
2.60065e-07
6.16789e-06
0.000413481
0.000334855
1.40187e-14
8.95156e-14
9.0741e-13
9.06672e-12
8.92081e-11
1.77485e-10
1.37607e-10
1.38846e-10
4.40288e-07
8.42022e-07
8.40014e-07
3.92621e-07
9.30997e-08
5.80096e-07
5.27206e-07
2.58446e-07
4.88739e-05
0.000657224
0.000513543
6.07568e-15
8.50487e-14
1.25752e-12
1.45407e-11
9.85548e-11
1.74408e-10
1.35448e-10
1.3176e-08
8.42022e-07
8.42022e-07
3.85521e-07
6.24844e-08
1.11447e-07
6.03536e-07
3.80497e-07
3.1879e-07
9.46103e-05
0.000659949
2.02036e-05
4.66189e-15
1.16559e-13
1.58754e-12
2.02601e-11
1.2194e-10
1.33818e-10
1.3435e-10
1.63376e-07
8.37628e-07
7.70502e-07
6.24844e-08
6.24844e-08
1.05831e-07
6.13163e-07
3.80497e-07
9.31159e-06
7.76478e-05
0.000548362
1.84618e-05
3.84687e-15
1.53433e-13
2.12811e-12
2.23784e-11
1.30209e-10
1.32424e-10
1.33343e-10
1.60497e-07
8.33123e-07
2.54693e-07
6.68138e-08
6.24932e-08
8.05114e-08
1.21766e-06
3.82323e-05
5.87919e-05
4.11905e-05
5.20268e-08
7.08601e-06
3.41853e-15
2.01179e-13
2.80527e-12
1.66415e-11
1.11901e-10
1.55502e-10
1.35899e-10
1.36907e-10
3.83049e-07
4.61494e-07
2.09053e-06
2.6983e-07
1.12328e-07
5.74119e-06
3.82308e-05
3.23148e-05
1.45244e-06
1.62423e-09
1.75408e-10
3.69769e-15
2.29706e-13
3.03878e-12
1.05915e-11
8.35603e-11
1.6725e-10
1.77093e-10
1.60711e-10
1.62393e-10
4.73212e-07
1.19403e-05
1.93039e-05
1.53098e-05
1.11938e-05
1.65735e-05
2.09597e-06
2.25928e-09
1.80847e-10
9.68668e-11
3.82977e-15
2.05411e-13
1.55792e-12
4.95975e-12
4.4834e-11
1.42026e-10
2.04803e-10
1.98514e-10
1.6402e-10
1.64137e-10
1.03428e-05
2.96287e-05
2.96287e-05
2.96287e-05
2.92994e-05
8.03656e-06
6.10384e-09
9.9158e-11
8.78671e-12
1.87026e-15
9.45835e-14
5.10512e-13
1.45661e-12
1.97925e-11
6.04113e-11
1.93926e-10
3.15691e-10
1.81648e-10
1.63155e-10
5.33094e-12
1.43773e-05
2.79836e-05
2.10545e-05
6.09092e-06
5.11751e-07
8.34678e-11
4.13125e-12
3.66721e-12
4.03536e-16
1.76887e-14
1.13354e-13
6.1763e-13
8.86174e-12
1.70159e-11
1.87703e-10
3.25454e-10
2.65331e-10
1.72214e-10
1.76185e-12
1.07078e-13
5.74713e-15
1.84948e-15
1.78886e-15
1.84948e-15
8.73273e-13
2.92833e-12
3.29853e-12
3.90033e-17
2.62604e-15
4.89187e-14
5.55204e-13
4.0539e-12
4.47939e-12
1.19521e-10
2.89519e-10
2.1692e-10
1.80829e-10
7.67039e-11
1.34957e-11
1.58102e-13
4.47651e-15
1.66172e-15
9.89514e-13
9.55569e-12
1.20559e-11
3.90227e-12
7.71035e-18
9.13703e-16
4.10935e-14
5.54994e-13
1.62082e-12
1.30965e-12
2.931e-11
8.06312e-11
5.6026e-11
1.07081e-10
9.9887e-11
3.78071e-11
3.60939e-12
6.41813e-14
7.11668e-16
1.23951e-11
2.09199e-11
1.56278e-11
2.7228e-12
4.42184e-18
4.01619e-16
2.64681e-14
1.90171e-13
4.4603e-13
3.71099e-13
2.29788e-12
7.28095e-12
8.6227e-12
3.97477e-11
3.97669e-11
2.03453e-11
2.90803e-12
5.77482e-14
5.89586e-18
1.66751e-11
2.09199e-11
1.07032e-11
6.93681e-13
2.83959e-18
1.41982e-16
8.12401e-15
2.03662e-14
7.02345e-14
6.43181e-14
1.36421e-12
2.73444e-12
2.21163e-12
5.05756e-12
4.10309e-12
1.42084e-12
1.21326e-13
6.00803e-16
1.42402e-19
1.64769e-11
1.67618e-11
3.37573e-12
8.72212e-14
1.27299e-18
2.851e-17
7.25251e-16
1.05316e-15
9.24459e-15
7.48686e-15
4.13335e-13
3.80117e-13
2.18283e-13
9.26898e-14
3.68906e-14
7.13608e-15
2.7577e-16
5.54591e-20
3.01004e-25
9.30783e-12
4.86041e-12
5.0672e-13
4.38781e-15
3.12476e-19
2.78788e-18
1.14216e-17
2.90749e-17
6.10546e-16
3.37318e-16
1.55997e-14
1.1036e-14
2.86185e-15
7.0095e-17
1.45706e-23
3.66995e-26
8.92487e-29
1.70387e-27
4.29981e-34
2.32202e-12
6.9569e-13
3.12722e-14
5.64454e-17
3.57201e-20
1.25453e-19
2.98276e-19
2.74936e-18
9.65256e-18
3.02567e-18
1.26017e-16
5.0423e-17
2.7449e-18
3.44393e-21
1.77446e-25
9.5957e-34
4.66936e-36
2.31076e-38
4.04848e-43
1.93633e-13
4.77894e-14
9.17469e-16
1.13487e-20
1.04099e-21
1.36389e-21
2.8036e-21
4.27366e-20
1.29303e-20
3.65977e-21
3.19472e-21
3.99898e-22
2.04456e-24
1.00534e-29
4.16399e-35
1.35414e-39
8.30444e-43
1.44047e-44
1.76846e-72
3.7621e-16
2.90209e-17
2.28419e-21
1.84416e-25
)
;

boundaryField
{
    leftWall
    {
        type            zeroGradient;
    }
    rightWall
    {
        type            zeroGradient;
    }
    lowerWall
    {
        type            zeroGradient;
    }
    atmosphere
    {
        type            inletOutlet;
        inletValue      uniform 0;
        value           nonuniform List<scalar> 
46
(
1.80781e-32
1.8335e-32
1.28986e-32
5.43713e-33
1.90436e-33
9.90759e-34
9.11883e-34
9.11883e-34
9.11883e-34
1.19423e-33
2.32369e-33
4.15974e-33
2.44743e-33
1.13869e-33
6.32228e-34
5.83379e-34
5.83379e-34
2.57573e-33
7.1293e-32
1.7828e-30
3.89213e-29
8.84604e-28
1.0121e-26
3.02447e-26
5.22525e-25
0
0
0
0
0
0
0
0
0
0
0
0
0
0
0
0
0
0
0
0
0
)
;
    }
    defaultFaces
    {
        type            empty;
    }
}


// ************************************************************************* //
