/*--------------------------------*- C++ -*----------------------------------*\
  =========                 |
  \\      /  F ield         | OpenFOAM: The Open Source CFD Toolbox
   \\    /   O peration     | Website:  https://openfoam.org
    \\  /    A nd           | Version:  13
     \\/     M anipulation  |
\*---------------------------------------------------------------------------*/
FoamFile
{
    format      ascii;
    class       surfaceScalarField;
    location    "0.85";
    object      alphaPhi.water;
}
// * * * * * * * * * * * * * * * * * * * * * * * * * * * * * * * * * * * * * //

dimensions      [0 3 -1 0 0 0 0];

internalField   nonuniform List<scalar> 
4432
(
-4.96655e-06
4.96655e-06
-1.09479e-05
5.98139e-06
-1.75049e-05
6.55697e-06
-2.39741e-05
6.46915e-06
-2.79012e-05
3.92714e-06
-2.77002e-05
-2.00988e-07
-2.52068e-05
-2.49338e-06
-2.24217e-05
-2.78511e-06
-1.97518e-05
-2.6699e-06
-1.70773e-05
-2.67449e-06
-1.46964e-05
-2.3809e-06
-1.30781e-05
-1.61835e-06
-1.23533e-05
-7.24772e-07
-1.20269e-05
-3.26375e-07
-1.13738e-05
-6.52892e-07
-1.12982e-05
2.49097e-07
-1.53741e-05
4.02286e-06
-2.222e-05
6.33859e-06
-2.51932e-05
3.01289e-06
-2.14567e-05
-3.63489e-06
-1.4289e-05
-6.94839e-06
-6.4422e-06
-7.85768e-06
-6.46233e-06
-9.2559e-06
1.42225e-05
-1.79527e-05
1.46782e-05
-2.5266e-05
1.38703e-05
-2.99983e-05
1.12014e-05
-3.09757e-05
4.90459e-06
-2.91116e-05
-2.06509e-06
-2.60224e-05
-5.58256e-06
-2.2939e-05
-5.86854e-06
-2.00446e-05
-5.56426e-06
-1.70769e-05
-5.6422e-06
-1.41778e-05
-5.28e-06
-1.18847e-05
-3.91143e-06
-1.07656e-05
-1.84392e-06
-1.12606e-05
1.68671e-07
-1.3573e-05
1.69935e-06
-1.65609e-05
3.90661e-06
-1.99715e-05
7.32454e-06
-2.09051e-05
7.08765e-06
-1.75454e-05
-5.0262e-07
-1.22452e-05
-8.90763e-06
-7.87199e-06
-1.16278e-05
-3.44094e-06
-1.23704e-05
-9.90332e-06
-9.77926e-06
2.40017e-05
-1.82179e-05
2.31168e-05
-2.50673e-05
2.07196e-05
-2.98256e-05
1.59597e-05
-3.15899e-05
6.66893e-06
-3.02237e-05
-3.43133e-06
-2.727e-05
-8.53622e-06
-2.41148e-05
-9.02374e-06
-2.0947e-05
-8.73208e-06
-1.75562e-05
-9.03305e-06
-1.40992e-05
-8.73691e-06
-1.10465e-05
-6.96418e-06
-8.83648e-06
-4.05396e-06
-7.842e-06
-8.25802e-07
-8.57799e-06
2.43607e-06
-1.0478e-05
6.01308e-06
-1.10394e-05
8.58816e-06
-9.30882e-06
5.33613e-06
-5.70758e-06
-4.16778e-06
-2.24654e-06
-1.24371e-05
-5.49433e-07
-1.38904e-05
2.63737e-07
-1.33306e-05
-9.63963e-06
-8.93696e-06
3.29387e-05
-1.67296e-05
3.09094e-05
-2.34038e-05
2.73938e-05
-2.84401e-05
2.09961e-05
-3.06458e-05
8.87457e-06
-2.99765e-05
-4.10056e-06
-2.79524e-05
-1.05603e-05
-2.54904e-05
-1.14857e-05
-2.23859e-05
-1.18366e-05
-1.86738e-05
-1.27452e-05
-1.48477e-05
-1.2563e-05
-1.15331e-05
-1.02788e-05
-9.06345e-06
-6.52355e-06
-7.31059e-06
-2.57867e-06
-5.95772e-06
1.08319e-06
-4.61358e-06
4.66913e-06
-2.53053e-06
6.5763e-06
-5.46704e-08
3.11082e-06
1.93474e-06
-6.26743e-06
3.06865e-06
-1.38198e-05
3.05001e-06
-1.38718e-05
2.02488e-06
-1.23055e-05
-7.61507e-06
-7.69363e-06
4.06323e-05
-1.46941e-05
3.79099e-05
-2.07158e-05
3.34156e-05
-2.51723e-05
2.54526e-05
-2.73052e-05
1.10074e-05
-2.771e-05
-3.69566e-06
-2.75841e-05
-1.06863e-05
-2.66632e-05
-1.24067e-05
-2.40455e-05
-1.44542e-05
-1.99536e-05
-1.68371e-05
-1.5474e-05
-1.70426e-05
-1.17314e-05
-1.40215e-05
-9.20696e-06
-9.04796e-06
-7.57008e-06
-4.21557e-06
-6.04158e-06
-4.45302e-07
-3.85839e-06
2.48595e-06
-9.04459e-07
3.6224e-06
1.58777e-06
6.1859e-07
2.5242e-06
-7.20385e-06
3.0791e-06
-1.43747e-05
3.08475e-06
-1.38774e-05
2.15864e-06
-1.13794e-05
-5.45643e-06
-6.15318e-06
4.67855e-05
-1.20392e-05
4.37959e-05
-1.68915e-05
3.82679e-05
-2.03294e-05
2.88905e-05
-2.23864e-05
1.30644e-05
-2.41915e-05
-1.88971e-06
-2.66065e-05
-8.27022e-06
-2.77252e-05
-1.12884e-05
-2.57128e-05
-1.64671e-05
-2.09037e-05
-2.16462e-05
-1.52321e-05
-2.27142e-05
-1.0755e-05
-1.84986e-05
-8.22216e-06
-1.15809e-05
-6.9918e-06
-5.44592e-06
-5.98063e-06
-1.45646e-06
-4.52102e-06
1.02633e-06
-2.55308e-06
1.65445e-06
-7.78728e-07
-1.15575e-06
4.89792e-07
-8.47237e-06
2.07993e-06
-1.59648e-05
3.16188e-06
-1.49594e-05
2.49087e-06
-1.07084e-05
-2.96556e-06
-4.39783e-06
5.11833e-05
-9.25665e-06
4.86547e-05
-1.29196e-05
4.19309e-05
-1.50427e-05
3.10136e-05
-1.6797e-05
1.48187e-05
-2.04884e-05
1.80566e-06
-2.60343e-05
-2.71243e-06
-2.88824e-05
-8.44308e-06
-2.65833e-05
-1.87692e-05
-2.00953e-05
-2.81338e-05
-1.2657e-05
-3.01524e-05
-7.30648e-06
-2.38491e-05
-4.94616e-06
-1.39412e-05
-4.55315e-06
-5.83895e-06
-4.42905e-06
-1.58055e-06
-3.75016e-06
3.47441e-07
-2.7706e-06
6.74886e-07
-1.67058e-06
-2.25577e-06
3.71388e-07
-1.05143e-05
3.26579e-06
-1.88591e-05
5.22397e-06
-1.69175e-05
3.91153e-06
-9.39588e-06
9.45864e-07
-2.39364e-06
5.3577e-05
-5.45098e-06
5.1712e-05
-6.80595e-06
4.32859e-05
-6.72863e-06
3.09363e-05
-9.23632e-06
1.73263e-05
-1.74734e-05
1.00889e-05
-2.64641e-05
6.16079e-06
-2.99444e-05
-4.96032e-06
-2.65608e-05
-2.21507e-05
-1.88357e-05
-3.58494e-05
-1.05631e-05
-3.84287e-05
-4.59862e-06
-2.98111e-05
-1.83114e-06
-1.671e-05
-1.47894e-06
-6.1914e-06
-1.84434e-06
-1.21515e-06
-1.83238e-06
3.3546e-07
-1.68673e-06
5.29236e-07
-6.67604e-07
-3.27489e-06
1.96087e-06
-1.31424e-05
6.33284e-06
-2.32258e-05
8.80759e-06
-1.9389e-05
5.55434e-06
-6.13638e-06
6.49971e-06
-1.32104e-05
1.32849e-05
-3.64891e-05
2.37099e-05
-4.60213e-05
9.36615e-06
-3.36979e-05
-1.26818e-05
-9.75387e-06
-2.41654e-05
3.83833e-06
-1.37216e-05
-4.56445e-06
8.00696e-06
-2.61363e-05
1.88652e-05
-2.63885e-05
1.14438e-06
-7.34384e-06
-2.00855e-05
2.65926e-06
-1.14191e-05
5.63113e-06
-3.08104e-06
8.84319e-06
-3.39916e-06
1.58241e-05
-7.16797e-06
2.11194e-05
-5.49524e-06
1.8496e-05
4.92749e-06
1.61702e-06
1.68858e-05
-6.09585e-06
7.71972e-06
-6.08901e-06
-2.56703e-05
3.89175e-05
-4.34955e-05
4.16474e-05
-4.21194e-05
8.08394e-06
-2.85601e-05
-2.61424e-05
-1.32508e-05
-3.93935e-05
-1.96621e-05
-7.23833e-06
-3.7309e-05
2.64624e-05
-3.02879e-05
1.23964e-05
-1.69264e-05
-1.32856e-05
-7.94149e-06
-3.05977e-05
-6.56554e-06
-1.57734e-05
-2.46651e-06
-7.22822e-06
3.01587e-06
-8.90876e-06
1.34544e-05
-1.71476e-05
2.38878e-05
-1.65575e-05
2.74866e-05
4.89372e-07
1.79236e-05
2.10652e-05
4.58814e-06
1.80802e-05
-6.34541e-07
-2.29893e-05
6.19789e-05
-3.30229e-05
5.17532e-05
-3.05215e-05
6.72349e-06
-2.56157e-05
-3.1117e-05
-2.30556e-05
-4.24899e-05
-3.95236e-05
9.34772e-06
-3.62852e-05
3.00009e-05
-2.18818e-05
3.41543e-06
-1.95202e-05
-1.33012e-05
-2.84954e-05
-1.91429e-05
-2.78227e-05
-1.70538e-05
-2.44797e-05
-1.07953e-05
-1.92804e-05
-1.45915e-05
-8.3308e-06
-2.87608e-05
6.77941e-06
-3.23726e-05
1.824e-05
-1.18254e-05
1.74432e-05
2.07276e-05
9.33146e-06
2.55489e-05
9.73262e-06
-1.59339e-05
7.7985e-05
-1.82638e-05
5.28008e-05
-1.8439e-05
6.88102e-06
-2.05935e-05
-3.11177e-05
-2.74325e-05
-3.61863e-05
-4.43365e-05
2.6479e-05
-3.20968e-05
2.80086e-05
-2.14539e-05
2.21446e-06
-1.8639e-05
-2.38598e-06
-2.09101e-05
-4.50732e-06
-4.10662e-05
-6.55881e-06
-5.56722e-05
-7.78196e-06
-5.58487e-05
-1.62571e-05
-4.33821e-05
-4.17009e-05
-1.94337e-05
-5.6915e-05
3.48968e-06
-3.55097e-05
1.33994e-05
1.2775e-05
6.98482e-06
3.17099e-05
1.64631e-05
-8.50468e-06
8.65515e-05
-9.51164e-06
5.63129e-05
-9.83058e-06
7.17984e-06
-1.28481e-05
-2.84929e-05
-2.7443e-05
-2.21724e-05
-4.39925e-05
4.32554e-05
-2.59417e-05
2.54969e-05
-1.40154e-05
4.19249e-06
-1.29615e-05
1.78493e-06
-1.53311e-05
6.95291e-07
-2.05881e-05
1.27733e-08
-3.40091e-05
-3.0804e-06
-4.0795e-05
-1.4474e-05
-4.84032e-05
-3.21931e-05
-5.09713e-05
-5.94587e-05
-2.02469e-05
-6.69529e-05
2.35944e-06
-1.00657e-05
2.25905e-06
3.15645e-05
1.84685e-05
-1.7479e-06
8.73334e-05
-1.27454e-06
6.17776e-05
-1.52292e-07
6.03808e-06
-5.22281e-06
-2.2255e-05
-2.71097e-05
-1.43815e-06
-4.02844e-05
5.94818e-05
-1.28872e-05
2.17601e-05
-1.25294e-05
6.2359e-06
-1.28753e-05
4.81887e-06
-1.40212e-05
4.54895e-06
-1.31461e-05
1.96357e-06
-9.83694e-06
-1.23902e-06
-1.61233e-05
-6.14711e-06
-1.48474e-05
-3.99285e-05
-5.67859e-05
-5.99314e-05
-4.19556e-05
-8.3336e-05
-1.25039e-05
-3.95046e-05
-6.14106e-07
2.31612e-05
2.11898e-05
6.62005e-06
8.06758e-05
9.69403e-06
5.92279e-05
9.11383e-06
6.88233e-06
-9.58327e-07
-1.4098e-05
-2.69087e-05
2.10821e-05
-3.60374e-05
7.48238e-05
-1.0872e-05
2.36028e-05
-1.25228e-05
9.95604e-06
-1.34316e-05
8.0376e-06
-1.2069e-05
5.84848e-06
-1.0856e-05
3.2245e-06
-1.91085e-05
-2.32238e-06
-4.84566e-05
-2.74699e-05
-5.62143e-05
-8.09039e-05
-4.85191e-05
-9.033e-05
-4.88511e-05
-0.00012176
-2.23642e-05
-6.64369e-05
-5.52949e-07
1.40216e-06
2.07185e-05
1.21547e-05
6.97957e-05
1.96713e-05
5.19416e-05
1.93348e-05
5.17856e-06
2.15232e-06
9.60467e-07
-2.7591e-05
4.50101e-05
-3.70147e-05
9.31115e-05
-1.173e-05
3.07374e-05
-1.54827e-05
1.23142e-05
-1.55873e-05
1.02098e-05
-1.0833e-05
6.63004e-06
-8.16286e-06
2.16013e-06
-2.08108e-05
-5.40216e-06
-5.03777e-05
-4.76555e-05
-4.89549e-05
-7.75371e-05
-4.86573e-05
-8.87664e-05
-4.80189e-05
-0.000119189
-3.48432e-05
-7.95978e-05
-7.56034e-06
-2.97226e-05
1.22391e-05
3.94133e-06
4.96356e-05
-1.8262e-07
5.5836e-05
-6.04749e-06
4.91507e-05
-1.74831e-05
4.23719e-05
-3.67622e-05
3.6589e-05
-5.80671e-05
3.141e-05
-7.14429e-05
1.95533e-05
-7.75855e-05
1.19422e-06
-7.42914e-05
-2.52362e-05
-6.2758e-05
-4.67335e-05
-4.60018e-05
-4.72734e-05
-3.09887e-05
-3.37121e-05
-1.95784e-05
-2.16182e-05
-1.24015e-05
-1.216e-05
-8.83033e-06
-4.79029e-06
-7.23665e-06
-1.26082e-06
-7.13809e-06
4.05842e-07
-9.09943e-06
-1.30628e-06
-6.47943e-06
-1.42665e-05
1.01545e-05
-3.12516e-05
2.73091e-05
-2.8687e-05
1.99331e-05
1.84041e-06
1.49492e-05
1.14826e-05
-9.5e-06
2.25619e-05
-2.82418e-05
4.07519e-05
-4.68022e-05
4.36512e-05
-5.16551e-05
3.46167e-05
-6.58294e-05
3.49713e-05
-8.68593e-05
3.54852e-05
-0.000110264
3.78503e-05
-0.000128816
1.9851e-05
-0.000131029
-9.02517e-06
-9.21708e-05
-1.25596e-05
-4.88174e-05
-1.13902e-05
-3.34484e-05
-2.0969e-06
-2.671e-05
-5.6513e-07
-3.11126e-05
-1.52591e-06
-3.134e-05
-3.29196e-06
-3.55904e-05
1.24724e-07
-5.30888e-05
5.68039e-06
-6.77488e-05
6.48788e-06
-4.48057e-05
-1.07652e-05
-1.42568e-05
-3.58575e-05
1.01872e-05
-2.98271e-05
2.38463e-05
-2.86874e-06
1.00227e-05
2.14134e-05
-1.82682e-05
2.18347e-05
-2.32324e-05
5.73311e-06
-3.52569e-05
1.98709e-05
-0.000149261
4.25879e-05
-0.000183581
5.74638e-05
-0.00020883
5.18389e-05
-0.000216694
3.56734e-05
-0.000166924
1.14237e-05
-5.55824e-05
2.17477e-06
-8.52348e-06
-7.30656e-06
-1.50179e-06
-1.58128e-05
-1.2143e-06
-2.41629e-06
-1.59656e-06
-1.78325e-07
-3.17275e-06
4.3979e-08
-6.51783e-06
-3.58498e-09
-1.89717e-05
-1.96097e-07
-2.77624e-05
-3.90767e-07
-3.03244e-05
-4.65912e-07
-3.41931e-05
-1.14931e-05
-2.598e-05
-5.03556e-05
-1.99577e-06
-4.35844e-05
7.6599e-07
-3.11565e-06
2.75173e-06
-2.15341e-06
-1.97386e-05
2.22687e-05
-5.92876e-05
2.51633e-05
-0.000228483
5.61168e-05
-0.000280614
6.45729e-05
-0.000289761
4.2338e-05
-0.000141672
1.42733e-05
-3.29546e-05
4.22835e-07
-1.60829e-05
1.13806e-06
-2.12982e-05
1.47355e-08
-4.10915e-05
-1.4547e-05
-3.09367e-05
-1.84453e-05
-4.87566e-06
-1.43202e-05
-1.14368e-06
-3.72529e-06
-1.0204e-06
-1.32926e-07
-1.07541e-06
-2.19555e-09
-1.24079e-06
-8.43453e-08
-1.45835e-06
-2.67476e-07
-1.51342e-06
-6.61993e-07
-2.05092e-05
-8.87444e-06
-4.0251e-05
-5.73748e-05
-1.89996e-05
-5.49078e-05
-2.88843e-06
-9.0493e-06
3.34548e-06
-5.01709e-06
-2.9051e-05
3.25019e-05
-8.3454e-05
3.21591e-05
-0.000126327
1.51259e-05
-8.1108e-05
3.30624e-06
-3.20811e-05
1.08605e-06
-6.01503e-06
1.08728e-06
-3.58207e-06
1.40111e-07
-3.16289e-06
1.09891e-07
-2.20329e-05
-2.54993e-07
-5.01999e-05
-8.37016e-06
-5.10624e-05
-1.50675e-05
-4.32487e-05
-1.96741e-05
-2.52298e-05
-1.47411e-05
-4.41944e-06
-1.11819e-05
-7.91317e-07
-5.71466e-06
-5.72541e-07
-3.97316e-07
-3.575e-07
-7.35911e-07
-1.00335e-06
-4.05195e-07
-2.8872e-05
-1.39913e-05
-3.46119e-05
-4.91869e-05
-3.55419e-05
-5.16178e-05
-1.4996e-06
-2.22831e-05
1.93914e-06
-2.91761e-06
-2.05819e-05
3.2111e-05
-1.63969e-05
6.18952e-06
-4.91004e-06
2.02077e-06
-2.31793e-06
5.27962e-07
-1.58211e-06
1.62346e-07
-6.05691e-07
6.9284e-08
-4.92161e-07
1.81833e-08
-3.94053e-07
2.94159e-09
-6.10757e-07
-5.77214e-08
-1.06605e-05
-4.26693e-07
-3.92473e-05
-3.61879e-06
-4.7489e-05
-8.56901e-06
-4.40705e-05
-1.48373e-05
-3.45023e-05
-1.74278e-05
-2.2234e-05
-1.40395e-05
-1.05891e-05
-1.39535e-05
-2.03223e-06
-8.06025e-06
-2.2248e-06
-6.14482e-06
-3.05852e-05
-2.57939e-05
-3.81615e-05
-3.93013e-05
-4.3605e-05
-4.40407e-05
-3.2212e-05
-3.10319e-05
5.62936e-06
-1.23511e-06
-5.6802e-06
1.60797e-05
-1.82789e-06
1.77316e-06
-6.26378e-07
5.20207e-07
-2.29093e-07
1.0029e-07
-1.0211e-07
2.0133e-08
-4.19966e-08
4.76848e-09
-2.35341e-08
0
-2.06803e-08
0
-8.51796e-08
-1.97068e-09
-3.64293e-07
-1.14718e-08
-4.0586e-06
-1.01648e-07
-1.34462e-05
-4.38093e-07
-3.43211e-05
-2.41559e-06
-3.95541e-05
-8.39289e-06
-3.6921e-05
-1.16032e-05
-3.01758e-05
-1.51247e-05
-1.55436e-05
-1.71159e-05
-1.04467e-05
-7.47467e-06
-3.28702e-05
-4.41045e-06
-4.98753e-05
-1.91753e-05
-5.82303e-05
-3.30416e-05
-4.53079e-05
-3.85677e-05
9.9284e-07
-1.07287e-06
-1.48734e-06
1.69735e-06
-4.44915e-07
4.52975e-07
-9.55441e-08
1.40666e-07
-2.23212e-08
2.01174e-08
-6.32815e-09
2.49595e-09
-2.414e-09
3.9826e-10
-8.23328e-10
2.21659e-11
-5.41722e-10
3.24902e-14
-2.42628e-09
-4.00719e-11
-1.88466e-08
-9.66273e-12
-1.20534e-07
-1.25933e-11
-5.58726e-07
-9.29061e-11
-2.98577e-06
-4.43093e-10
-1.13783e-05
-1.83207e-09
-2.66292e-05
-7.76268e-09
-3.98077e-05
-2.61051e-08
-1.9713e-05
-8.12384e-08
-1.74765e-06
-1.53553e-07
-5.95941e-06
-2.93099e-07
-2.13142e-05
-1.3808e-06
-4.89065e-05
-1.21274e-05
-5.64296e-05
-2.44616e-05
-6.9018e-06
-1.03472e-06
-2.64909e-07
1.28388e-06
-1.04195e-07
2.03445e-07
-1.72395e-08
3.77773e-08
-2.45587e-09
3.8065e-09
-4.04429e-10
2.80835e-10
-6.67566e-11
2.66652e-11
-4.94511e-11
2.06236e-12
-4.9364e-11
3.76729e-13
-1.37421e-11
4.22969e-13
-1.83978e-11
-8.27123e-12
-2.73532e-11
-6.95113e-12
-1.15731e-10
-8.19644e-12
-5.31255e-10
-4.01674e-11
-2.21297e-09
-2.06525e-10
-9.23911e-09
-9.61399e-10
-3.28127e-08
-3.33162e-09
-1.07209e-07
-9.50039e-09
-2.39289e-07
-2.96561e-08
-3.64761e-07
-1.08613e-07
-1.48244e-06
-3.82963e-07
-1.2337e-05
-1.52118e-06
-4.42155e-05
-6.11988e-06
-5.63322e-06
-3.29126e-05
4.52307e-08
6.58168e-07
-2.96404e-08
2.67911e-07
-3.20523e-09
1.04656e-08
-2.69571e-10
6.22802e-10
-2.68309e-11
2.54328e-11
-2.82789e-12
1.25915e-12
-1.00389e-12
1.12904e-13
-7.32421e-13
3.978e-14
-1.32158e-11
0
-7.14214e-12
1.2715e-12
-1.06171e-11
-1.46925e-13
-1.59775e-11
-1.61936e-12
-4.97253e-11
-8.54799e-12
-2.30369e-10
-4.86585e-11
-9.99293e-10
-3.2397e-10
-3.16384e-09
-1.79815e-09
-9.40297e-09
-1.27152e-08
-1.37483e-08
-6.05453e-08
-3.69721e-08
-1.14589e-07
-2.27509e-07
-2.30157e-07
-1.61196e-06
-1.70169e-07
-7.81342e-06
-9.19017e-08
-4.40434e-07
-1.77167e-05
1.63598e-07
5.88956e-07
-5.12892e-09
4.70999e-07
-5.50054e-10
6.76404e-09
-2.37392e-11
1.58178e-10
-1.47314e-12
2.25758e-12
-3.31304e-13
2.58989e-14
-1.97449e-13
-7.9966e-14
-1.17842e-13
-9.6566e-14
-5.64492e-13
-7.72744e-14
1.49806e-13
-3.51663e-13
-1.14484e-12
9.07461e-13
-9.53663e-13
3.61832e-13
0
1.48257e-12
-4.48741e-11
-2.20462e-12
-4.11939e-10
-6.75127e-11
-2.5787e-09
-7.88111e-10
-1.44765e-07
-6.85734e-09
-1.95379e-07
-5.73858e-08
-1.82839e-07
-9.52208e-08
-1.42783e-07
-1.90941e-07
-1.47481e-07
-1.55976e-07
-1.37348e-07
-9.49669e-08
-7.05975e-08
-4.9983e-07
8.60905e-08
3.04007e-07
4.19514e-08
7.00613e-07
-5.0868e-12
7.47798e-08
-1.84369e-12
8.72886e-10
-2.72555e-13
3.13126e-12
-2.03859e-13
-9.11006e-14
-1.22981e-13
-2.06457e-13
-4.38747e-14
-2.34199e-13
2.00246e-13
-3.62165e-13
2.45819e-12
-9.61499e-13
3.31116e-12
2.49387e-14
2.82108e-12
8.53472e-14
3.68153e-12
2.86926e-12
0
3.10109e-12
0
3.30188e-11
0
-9.63577e-11
-4.1727e-08
-4.55494e-09
-1.00237e-07
-2.64382e-08
-1.31382e-07
-3.21674e-08
-1.86309e-07
-1.05991e-07
-1.38165e-07
-1.08523e-07
-7.08696e-08
-1.8123e-07
-1.13401e-07
-2.39673e-08
1.17862e-07
1.15021e-07
1.94648e-07
6.35618e-07
1.46442e-08
3.42997e-07
5.04782e-10
1.68482e-08
3.00799e-12
4.88954e-10
3.20155e-15
3.69771e-12
3.773e-14
0
7.61623e-14
-2.86102e-13
3.44312e-13
-1.72413e-13
4.87918e-13
-1.63951e-13
4.22678e-13
-2.53218e-14
5.40255e-13
2.93089e-14
3.19307e-12
0
5.59857e-12
7.75427e-13
3.96275e-11
3.01622e-13
6.88706e-10
2.30635e-10
-1.11523e-09
-3.68877e-12
-2.36303e-09
-1.77311e-08
0
-4.01859e-08
-5.72518e-08
-5.04718e-08
-1.42054e-07
-8.38258e-08
-1.9405e-07
-1.69776e-07
-1.92881e-07
-1.03523e-07
6.34182e-08
2.55406e-08
1.96033e-07
4.6023e-07
1.11206e-07
3.69091e-07
3.80425e-09
1.16792e-07
1.09638e-10
4.8422e-09
3.60768e-14
1.83649e-10
5.7298e-13
-6.95457e-12
2.96909e-14
-1.73342e-12
4.21546e-14
-2.31481e-13
2.60794e-14
-3.17506e-14
1.91568e-14
-3.39442e-15
3.69645e-14
1.04938e-15
7.58118e-13
2.36007e-13
1.26686e-12
1.3016e-12
1.68902e-12
9.81439e-13
4.85846e-11
0
9.78012e-11
1.10199e-17
1.38181e-08
-1.53479e-13
9.12529e-09
-2.17993e-08
-4.55905e-09
-5.6389e-08
-5.49621e-08
-9.1278e-08
-9.0704e-08
-1.17526e-07
-1.54254e-07
-1.09199e-07
2.11548e-08
2.35589e-09
1.64959e-07
3.85622e-08
9.18841e-08
1.26458e-07
1.24414e-08
1.12784e-07
9.69821e-10
1.15289e-08
5.88151e-11
8.27809e-10
0
1.55339e-11
0
-6.56676e-12
7.4797e-15
-9.69952e-13
2.00756e-14
-7.02165e-14
2.29646e-14
-5.69938e-15
1.30616e-14
5.00865e-16
7.39189e-12
7.4438e-13
1.10471e-11
3.63463e-12
2.88233e-12
2.27767e-12
4.03914e-12
2.36568e-13
1.3265e-12
2.33339e-13
1.08866e-12
1.09646e-14
5.59784e-08
-1.09561e-13
4.14676e-08
-5.0346e-08
1.46519e-08
-9.99437e-08
-1.00865e-08
-1.55496e-07
-7.47254e-08
-3.10747e-08
1.57677e-09
2.26407e-10
2.624e-08
6.10883e-09
6.08767e-08
1.42235e-08
3.04585e-08
1.17392e-08
1.226e-09
1.53667e-08
1.79603e-10
1.20786e-09
2.10323e-11
6.47876e-11
2.04229e-12
-1.64064e-12
2.24401e-13
-6.78573e-13
8.53584e-14
-5.75141e-14
6.09963e-14
-2.09423e-15
4.91716e-14
1.24785e-15
1.14088e-11
9.20124e-13
1.3546e-11
2.20218e-12
1.37327e-11
3.0501e-12
1.60604e-12
2.47127e-12
7.56982e-13
2.60146e-13
4.49387e-13
3.49851e-14
4.06664e-13
-3.10087e-14
6.09794e-08
-6.02018e-12
2.81117e-08
-4.72704e-08
1.44673e-08
-5.51515e-08
-8.77513e-09
6.39089e-09
1.79692e-10
5.94426e-12
4.39634e-09
7.65493e-10
9.94104e-09
3.49283e-09
7.6065e-09
1.85892e-09
3.80981e-09
1.27196e-09
1.41645e-10
9.24768e-10
2.53035e-11
6.50768e-11
3.1472e-12
3.61207e-12
3.64885e-13
6.85597e-14
1.26414e-13
1.23157e-14
8.52139e-14
4.75785e-15
7.1654e-14
2.62873e-15
9.68671e-12
3.09627e-13
1.31265e-11
1.28531e-12
1.47962e-11
2.33955e-12
4.07648e-12
1.13545e-12
4.0418e-13
1.86745e-13
2.42815e-13
2.35048e-14
1.48466e-12
-3.5142e-15
5.51169e-12
-8.71729e-12
1.73119e-08
-3.77238e-11
1.04163e-08
-3.91282e-12
-5.12897e-13
1.53041e-09
-4.55387e-12
1.24078e-12
5.87418e-10
5.78087e-11
1.95306e-09
6.89669e-10
1.74189e-09
4.69085e-10
6.88681e-10
0
1.04641e-10
0
6.90003e-12
1.25958e-11
1.13562e-12
1.30733e-12
1.06529e-13
1.41228e-13
4.39071e-14
2.06151e-14
2.74477e-14
4.74185e-15
2.58755e-14
2.90358e-15
3.32353e-13
4.19339e-15
6.92281e-12
3.04448e-14
6.84667e-12
1.72406e-13
2.08937e-12
7.24378e-14
5.646e-13
2.50366e-14
4.89107e-13
2.06364e-15
1.61987e-12
-6.66737e-15
4.14253e-11
-7.7289e-14
4.22683e-12
-4.76132e-13
4.51715e-13
-1.11813e-13
-1.38194e-13
8.31966e-14
-1.52261e-12
7.49701e-13
3.97014e-11
3.61941e-12
2.92008e-10
1.10252e-10
3.23842e-10
9.07884e-11
1.00151e-10
1.59151e-13
1.36143e-11
0
1.08747e-12
4.01947e-13
1.46635e-13
1.82874e-13
2.82243e-14
3.63655e-14
2.08678e-14
8.14495e-15
1.40645e-14
3.06133e-15
1.4276e-14
3.50256e-15
1.4492e-14
3.217e-15
6.23197e-14
2.14424e-15
1.93827e-13
8.65103e-16
2.78682e-13
0
1.72097e-13
3.7685e-15
7.22594e-14
-7.35218e-16
7.53625e-14
-1.84853e-15
5.5338e-13
-5.64803e-15
1.19833e-13
-5.48617e-14
9.82468e-14
-1.1976e-13
-1.48116e-13
7.92297e-14
0
1.41002e-13
5.15338e-14
2.92891e-13
3.49064e-11
1.51483e-11
5.03743e-11
1.35616e-11
1.45376e-11
4.37481e-13
2.39048e-12
0
3.0422e-13
1.16517e-14
5.43244e-14
3.86497e-14
2.17375e-14
1.25577e-14
8.23551e-15
2.50999e-15
7.03766e-15
1.62091e-15
1.75823e-14
3.93256e-15
3.43304e-14
8.21287e-15
4.82814e-14
1.00421e-14
6.07663e-14
8.80905e-15
6.29748e-14
6.26991e-15
6.15215e-14
2.30867e-15
2.97948e-14
-8.87892e-16
1.27283e-14
-1.29712e-15
4.51417e-15
-7.19879e-16
1.44933e-13
-3.32795e-15
2.31928e-13
-8.79444e-15
-2.95815e-14
1.87038e-13
-1.12714e-15
2.05012e-14
-2.85146e-13
8.67063e-14
3.87972e-12
1.84203e-12
6.61692e-12
1.61385e-12
1.95602e-12
6.72671e-14
3.75721e-13
5.52373e-15
8.46799e-14
2.30681e-14
2.55174e-14
1.53276e-14
5.50101e-15
3.16675e-15
2.87278e-15
6.14177e-16
4.03111e-15
1.04812e-15
1.73462e-14
3.82727e-15
4.34717e-14
9.41722e-15
5.73668e-14
1.41252e-14
6.37891e-14
1.17206e-14
6.18648e-14
7.51987e-15
4.31403e-14
2.5282e-15
1.95157e-14
-4.26175e-16
6.1763e-15
-1.00994e-15
2.86053e-15
-5.16055e-16
4.88283e-15
-2.87631e-16
2.07723e-14
-6.94479e-16
-1.56425e-15
2.11689e-14
-8.72191e-17
3.14889e-15
1.89837e-14
1.29189e-14
4.7444e-13
1.95852e-13
7.68164e-13
1.53371e-13
2.4953e-13
1.49068e-14
7.08022e-14
1.60447e-14
2.0743e-14
1.22793e-14
4.79661e-15
3.0442e-15
9.80297e-16
4.26325e-16
7.53932e-16
1.92239e-16
2.8828e-15
6.56723e-16
1.31606e-14
2.81465e-15
3.53268e-14
7.57602e-15
5.19381e-14
1.13976e-14
5.18741e-14
9.60672e-15
4.49185e-14
5.75123e-15
2.86979e-14
2.08921e-15
1.29199e-14
-5.96361e-18
4.21765e-15
-4.86349e-16
1.01889e-15
-3.24685e-16
6.09649e-16
-1.41146e-16
6.19712e-16
-8.45134e-17
-9.15437e-17
1.18833e-15
1.02708e-16
4.29208e-16
6.93363e-15
1.00095e-14
5.96724e-14
2.18873e-14
8.27808e-14
1.33524e-14
3.12373e-14
1.16884e-14
1.11662e-14
6.56606e-15
3.11101e-15
1.97935e-15
5.39407e-16
3.40413e-16
2.06903e-16
5.23796e-17
2.18055e-16
6.05551e-17
1.4155e-15
2.80701e-16
6.121e-15
1.03046e-15
1.74137e-14
2.8064e-15
2.56786e-14
4.53421e-15
2.54613e-14
3.63508e-15
2.11136e-14
2.25358e-15
1.33149e-14
9.28209e-16
6.16037e-15
1.12717e-16
2.18687e-15
-1.1128e-16
6.32753e-16
-9.82215e-17
1.78453e-16
-5.10642e-17
9.82788e-17
-2.23709e-17
-1.24417e-17
8.62989e-17
1.45916e-17
5.10879e-17
1.54596e-15
3.24439e-15
6.88174e-15
4.85762e-15
8.36595e-15
3.96235e-15
4.24027e-15
2.48397e-15
1.31989e-15
8.63e-16
2.9558e-16
1.87681e-16
5.60747e-17
3.34731e-17
3.33146e-17
6.35497e-18
6.46663e-17
1.2978e-17
3.71032e-16
5.10749e-17
1.38567e-15
1.47186e-16
3.93107e-15
3.6062e-16
6.20107e-15
6.51153e-16
6.18119e-15
5.56485e-16
5.08597e-15
3.58584e-16
3.27408e-15
1.64922e-16
1.5727e-15
3.58122e-17
5.9347e-16
-7.99674e-18
1.95997e-16
-1.02736e-17
5.94592e-17
-6.42292e-18
1.93702e-17
-2.99192e-18
-1.49737e-18
9.32859e-18
1.68035e-18
5.4432e-18
2.67007e-16
2.96453e-16
8.298e-16
6.77824e-16
8.77096e-16
5.25228e-16
3.9277e-16
2.32233e-16
1.15014e-16
7.04912e-17
2.64088e-17
1.63018e-17
5.56145e-18
2.98301e-18
3.77768e-18
7.71053e-19
1.04746e-17
1.407e-18
4.52765e-17
3.94598e-18
1.3987e-16
9.05101e-18
3.67277e-16
1.85138e-17
6.55564e-16
3.53009e-17
6.72936e-16
3.5091e-17
5.52266e-16
2.32476e-17
3.5905e-16
1.13554e-17
1.7511e-16
3.18718e-18
6.63509e-17
-8.03303e-20
2.31869e-17
-3.86259e-19
7.8914e-18
-2.71967e-19
2.6094e-18
-1.5117e-19
-1.22853e-19
1.30573e-18
1.76069e-19
5.34338e-19
3.06005e-17
2.73423e-17
8.08568e-17
5.40314e-17
7.24318e-17
3.7638e-17
3.11577e-17
1.7229e-17
9.35689e-18
5.51465e-18
2.16093e-18
1.29684e-18
5.28823e-19
2.43739e-19
4.1502e-19
8.7165e-20
9.66161e-19
1.16722e-19
3.24614e-18
2.45261e-19
8.42917e-18
4.81153e-19
1.93382e-17
8.26956e-19
3.64216e-17
1.45551e-18
3.88037e-17
1.48386e-18
3.16981e-17
9.99238e-19
2.00786e-17
4.93345e-19
9.4134e-18
1.51285e-19
3.25049e-18
1.34773e-20
1.07165e-18
-8.15881e-21
3.93236e-19
-5.96395e-21
1.89167e-19
-5.35147e-21
-7.78717e-21
1.60641e-19
1.71023e-20
4.89106e-20
2.93884e-18
2.52382e-18
6.6024e-18
3.98984e-18
5.28672e-18
2.6734e-18
2.29645e-18
1.23784e-18
6.9768e-19
4.00919e-19
1.61819e-19
9.44885e-20
4.79917e-20
1.83974e-20
4.24933e-20
8.73581e-21
8.42124e-20
1.13598e-20
2.27556e-19
2.04637e-20
5.11994e-19
3.5779e-20
1.02232e-18
5.48806e-20
1.77545e-18
8.46228e-20
1.85103e-18
7.55168e-20
1.47845e-18
5.05991e-20
8.81486e-19
2.43682e-20
3.79079e-19
7.52758e-21
1.135e-19
1.06524e-21
2.99955e-20
-1.16392e-22
1.25258e-20
-1.40518e-22
1.07437e-20
-2.46195e-22
-1.317e-21
1.45656e-20
1.53464e-21
4.18389e-21
2.51687e-19
2.17544e-19
4.88329e-19
2.8005e-19
3.55269e-19
1.7979e-19
1.56187e-19
8.29672e-20
4.78186e-20
2.69975e-20
1.1136e-20
6.34905e-21
3.98057e-21
1.2767e-21
3.81038e-21
7.36197e-22
8.00689e-21
1.12724e-21
1.83276e-20
1.9547e-21
3.66631e-20
3.15024e-21
6.58491e-20
4.56999e-21
9.72661e-20
6.1108e-21
9.76228e-20
4.86235e-21
7.3594e-20
3.13935e-21
4.00271e-20
1.42952e-21
1.56044e-20
4.29846e-22
4.10434e-21
7.0868e-23
8.88404e-22
1.21054e-24
5.96252e-22
-6.5465e-24
7.36867e-22
-4.19971e-23
-6.91334e-22
5.0611e-21
1.27467e-22
3.35411e-22
1.91793e-20
1.71396e-20
3.30968e-20
1.82686e-20
2.20905e-20
1.12582e-20
9.84739e-21
5.18523e-21
3.02908e-21
1.69131e-21
7.06244e-22
3.9583e-22
2.93554e-22
8.15619e-23
2.93844e-22
5.36678e-23
7.14155e-22
9.56219e-23
1.50564e-21
1.69654e-22
2.77311e-21
2.61856e-22
4.63563e-21
3.75159e-22
5.84034e-21
4.32258e-22
5.57844e-21
3.29932e-22
3.83708e-21
1.98835e-22
1.89075e-21
8.45975e-23
6.64341e-22
2.42449e-23
1.5099e-22
4.03047e-24
4.59707e-23
2.3779e-25
4.24526e-23
-4.89873e-25
2.81341e-22
-1.62928e-23
-3.62137e-22
3.36969e-21
9.86718e-24
2.52922e-23
1.30795e-21
1.2444e-21
2.05904e-21
1.11149e-21
1.27637e-21
6.58685e-22
5.78272e-22
3.03454e-22
1.78123e-22
9.90157e-23
4.15088e-23
2.30075e-23
1.92903e-23
4.87178e-24
2.06276e-23
3.6301e-24
5.56888e-23
7.04156e-24
1.14041e-22
1.27817e-23
1.99896e-22
1.93165e-23
3.17485e-22
2.79917e-23
3.61022e-22
2.81352e-23
3.13533e-22
2.09458e-23
1.97583e-22
1.18207e-23
8.81836e-23
4.69927e-24
2.74416e-23
1.26312e-24
5.56883e-24
1.86121e-25
2.89265e-24
2.71429e-26
9.82793e-24
-2.67817e-26
1.55399e-22
-5.19994e-24
-1.32172e-22
1.88547e-21
7.17061e-25
1.80002e-24
8.19819e-23
8.39389e-23
1.17156e-22
6.34515e-23
6.885e-23
3.61666e-23
3.1758e-23
1.66998e-23
9.76266e-24
5.44056e-24
2.27631e-24
1.25249e-24
1.16847e-24
2.75708e-25
1.36944e-24
2.36247e-25
3.87921e-24
4.79895e-25
7.8125e-24
8.71579e-25
1.32943e-23
1.29706e-24
2.0002e-23
1.89895e-24
2.10334e-23
1.69274e-24
1.69185e-23
1.22521e-24
9.75612e-24
6.53534e-25
3.92302e-24
2.42071e-25
1.05506e-24
6.00458e-26
2.42207e-25
7.35302e-27
1.95796e-25
3.76349e-27
3.55365e-24
2.52223e-26
6.09717e-23
-9.33906e-25
-3.03287e-23
7.09987e-22
4.92462e-26
1.21237e-25
5.03405e-24
5.29277e-24
5.80911e-24
3.4174e-24
3.47754e-24
1.87234e-24
1.63809e-24
8.67822e-25
5.00636e-25
2.81761e-25
1.17227e-25
6.41551e-26
6.76693e-26
1.48882e-26
8.55272e-26
1.47557e-26
2.49776e-25
3.11063e-26
4.92401e-25
5.56971e-26
8.19804e-25
8.18362e-26
1.13298e-24
1.17314e-25
1.14912e-24
9.66165e-26
8.64513e-25
6.72606e-26
4.54021e-25
3.36855e-26
1.63881e-25
1.16024e-26
3.78556e-26
2.59007e-27
1.60456e-26
3.21284e-28
1.97969e-26
5.6336e-28
8.9991e-25
1.13304e-26
1.51844e-23
-8.53157e-26
-5.10308e-24
1.80334e-22
3.21549e-27
7.74348e-27
3.02404e-25
3.14284e-25
2.67029e-25
1.74125e-25
1.6568e-25
9.2044e-26
7.95586e-26
4.27565e-26
2.41107e-26
1.38113e-26
5.69658e-27
3.10653e-27
3.76972e-27
7.69454e-28
5.06489e-27
8.83322e-28
1.50959e-26
1.92145e-27
2.90513e-26
3.37966e-27
4.73135e-26
4.92836e-27
6.20038e-26
6.60852e-27
5.87464e-26
5.3779e-27
4.09841e-26
3.4895e-27
1.97496e-26
1.6266e-27
6.40802e-27
5.20482e-28
1.32378e-27
1.00922e-28
6.55614e-28
1.92114e-29
3.23506e-27
8.34184e-29
1.44998e-25
2.03523e-27
2.74758e-24
6.99335e-28
-7.30937e-25
3.6272e-23
2.00483e-28
4.69601e-28
1.70648e-26
1.76913e-26
1.18161e-26
8.44239e-27
7.47615e-27
4.31381e-27
3.64906e-27
2.0052e-27
1.09436e-27
6.43433e-28
2.62626e-28
1.42858e-28
1.91734e-28
3.83327e-29
2.95991e-28
5.07116e-29
8.62517e-28
1.13378e-28
1.62042e-27
1.95833e-28
2.58185e-27
2.84883e-28
3.22474e-27
3.53949e-28
2.87807e-27
2.8335e-28
1.83841e-27
1.72584e-28
8.08546e-28
7.4604e-29
2.33226e-28
2.18901e-29
4.93428e-29
3.58631e-30
3.46172e-29
1.55745e-30
3.75064e-28
1.01343e-29
1.68577e-26
2.61864e-28
4.37426e-25
2.30784e-27
-9.18545e-26
6.52273e-24
1.19522e-29
2.70589e-29
9.11364e-28
9.49778e-28
5.01167e-28
3.92157e-28
3.20354e-28
1.93557e-28
1.58514e-28
8.98837e-29
4.6954e-29
2.86077e-29
1.1551e-29
6.26649e-30
8.85556e-30
1.85444e-30
1.68197e-29
2.81763e-30
4.67947e-29
6.4261e-30
8.59746e-29
1.09047e-29
1.34028e-28
1.58963e-29
1.58864e-28
1.82736e-29
1.33479e-28
1.41736e-29
7.82387e-29
8.12897e-30
3.11989e-29
3.25305e-30
7.86186e-30
8.54944e-31
2.59415e-30
1.3286e-31
2.46671e-30
1.68907e-31
3.64758e-29
1.32684e-30
1.71025e-27
3.62197e-29
6.62039e-26
7.2878e-28
-1.00063e-26
1.10125e-24
6.79988e-31
1.48209e-30
4.63757e-29
4.8913e-29
2.03946e-29
1.75678e-29
1.3068e-29
8.35768e-30
6.53504e-30
3.86798e-30
1.90842e-30
1.21911e-30
4.87154e-31
2.63409e-31
3.94379e-31
8.77532e-32
9.02132e-31
1.52898e-31
2.42101e-30
3.52773e-31
4.36012e-30
5.88489e-31
6.62746e-30
8.63121e-31
7.44744e-30
9.09795e-31
5.85291e-30
6.80337e-31
3.14366e-30
3.65777e-31
1.12445e-30
1.346e-31
2.52514e-31
3.04859e-32
1.27205e-31
6.90968e-33
3.30309e-31
2.76548e-32
4.98983e-30
3.2544e-31
2.11768e-28
8.18316e-30
1.06775e-26
2.20544e-28
-4.61022e-28
1.9006e-25
3.67703e-32
7.72145e-32
2.2602e-30
2.42879e-30
7.98142e-31
7.64204e-31
5.08452e-31
3.49271e-31
2.55979e-31
1.60576e-31
7.35544e-32
5.00281e-32
1.98065e-32
1.06657e-32
1.70062e-32
4.10058e-33
4.61323e-32
8.16438e-33
1.19994e-31
1.895e-32
2.12212e-31
3.11049e-32
3.10809e-31
4.598e-32
3.31895e-31
4.38709e-32
2.42719e-31
3.15606e-32
1.18452e-31
1.57826e-32
3.72616e-32
5.26933e-33
8.62019e-33
9.91682e-34
6.21779e-33
5.71208e-34
6.48642e-32
7.37833e-33
1.12363e-30
1.17712e-31
4.16232e-29
2.81715e-30
2.04613e-27
7.36959e-29
2.71221e-28
3.44599e-26
1.88033e-33
3.83112e-33
1.05769e-31
1.16809e-31
3.00938e-32
3.25012e-32
1.88893e-32
1.42144e-32
9.52618e-33
6.4662e-33
2.68755e-33
1.98733e-33
7.81095e-34
4.18569e-34
7.12917e-34
1.91294e-34
2.26359e-33
4.33285e-34
5.72012e-33
1.00712e-33
9.94296e-33
1.62967e-33
1.36265e-32
2.40287e-33
1.40499e-32
2.0841e-33
9.49156e-33
1.42093e-33
4.14363e-33
6.53484e-34
1.12083e-33
1.94257e-34
4.30597e-34
3.285e-35
4.77575e-34
7.13708e-35
1.4493e-32
2.1275e-33
3.02692e-31
4.17668e-32
1.00969e-29