/*--------------------------------*- C++ -*----------------------------------*\
  =========                 |
  \\      /  F ield         | OpenFOAM: The Open Source CFD Toolbox
   \\    /   O peration     | Website:  https://openfoam.org
    \\  /    A nd           | Version:  13
     \\/     M anipulation  |
\*---------------------------------------------------------------------------*/
FoamFile
{
    format      ascii;
    class       volScalarField;
    location    "0.85";
    object      p;
}
// * * * * * * * * * * * * * * * * * * * * * * * * * * * * * * * * * * * * * //

dimensions      [1 -1 -2 0 0 0 0];

internalField   nonuniform List<scalar> 
2268
(
1304.46
1288.64
1258.75
1218.56
1174.81
1130.74
1086.34
1040.53
993.866
947.767
904.422
867.077
838.535
819.972
810.266
805.709
804.528
805.171
808.463
817.678
829.206
836.106
836.5
1248.98
1232.16
1200.51
1158.17
1113.27
1070.48
1027.25
981.368
934.427
887.839
843.879
806.092
777.574
759.425
750.622
748.389
748.119
745.876
746.854
757.282
769.343
774.422
775.66
1191.35
1173.6
1140.96
1097.35
1052.41
1010.54
967.834
921.831
874.334
826.721
781.427
742.63
713.946
696.401
688.842
688.662
690.034
688.536
691.521
702.223
711.778
713.337
714.135
1131.95
1113.81
1080.92
1036.19
990.794
950.032
908.325
862.11
813.664
764.327
716.847
676.468
647.635
631.143
624.851
625.947
630.03
632.781
638.992
648.608
653.972
652.139
652.267
1072.06
1053.94
1021.18
975.304
929.583
890.334
849.729
802.668
752.562
700.632
649.984
607.338
578.394
563.459
559.078
561.968
569.069
577.853
587.681
595.519
595.875
590.376
590.105
1012.98
994.953
962.81
916.318
870.691
833.032
792.802
743.875
691.514
635.821
580.424
534.689
505.996
493.5
491.844
496.923
507.219
520.925
535.484
543.564
538.39
528.049
527.423
955.622
937.642
906.992
860.736
815.263
778.146
737.504
686.062
630.529
568.283
505.794
456.263
429.044
420.935
423.311
430.558
444.208
463.36
484.621
493.015
480.72
464.238
463.063
901.739
883.132
855.158
809.762
763.735
726.81
684.428
628.311
567.224
496.875
425.099
369.276
344.693
344.043
352.691
362.511
379.603
405.814
436.51
447.209
423.962
396.668
398.18
885.057
807.514
746.51
755.532
762.363
662.398
581.831
535.274
481.441
432.359
402.221
425.106
486.821
544.441
548.82
532.747
543.012
569.307
596.437
833.125
734.027
663.293
678.881
691.775
601.849
519.382
472.739
425.752
372.268
341.316
370.079
444.908
505.465
502.823
475.614
485.225
521.723
549.935
763.577
645.086
579.035
608.479
636.151
562.516
471.569
420.68
372.893
313.45
275.655
311.752
400.058
465.801
456.728
409.441
426.252
485.438
516.187
681.247
560.393
509.892
552.69
598.821
539.119
432.079
375.281
329.106
276.67
234.616
249.929
333.546
410.121
408.329
356.98
370.729
450.521
486.043
601.841
492.324
456.492
511.694
571.963
515.904
394.756
337.523
303.763
261.292
220.28
209.106
251.49
325.573
354.504
314.07
328.935
417.387
453.497
535.815
435.246
413.87
479.321
546.91
490.132
364.336
314.383
284.582
244.327
205.957
190.47
214.625
271.375
305.083
282.847
312.382
392.055
419.841
483.052
387.352
381.641
452.305
523.955
462.614
339.497
294.435
264.123
224.685
186.123
167.041
179.287
213.491
241.025
244.715
293.832
380.121
387.748
437.238
355.928
355.731
427.518
494.408
433.833
313.892
270.663
240.85
204.01
167.335
143.529
134.06
145.688
178.43
206.37
272.559
360.311
359.19
820.638
802.636
782.293
740.605
692.511
645.673
597.015
531.873
470.758
385.62
290.332
220.251
200.151
212.382
234.575
255.506
279.297
317.283
372.294
395.041
338.861
279.269
293.376
730.446
706.377
691.296
637.932
566.482
503.768
470.306
460.692
380.755
237.153
135.669
89.9768
87.4521
93.3717
94.2317
84.6366
136.765
245.948
332.276
317.654
202.684
111.304
137.941
679.179
631.151
622.55
581.141
463.828
332.414
205.254
137.878
156.824
134.864
88.7357
73.2876
71.5539
68.66
63.8549
62.9284
67.9599
83.1189
142.098
179.038
103.046
51.7136
67.2927
644.824
578.99
493.007
327.286
166.786
70.9885
21.605
30.8258
60.6856
74.7946
65.2392
67.3277
68.6346
68.1087
66.846
65.1593
65.0198
68.4702
78.951
97.852
69.0852
58.7654
53.2852
509.086
377.002
148.61
34.497
11.2238
5.34618
3.7203
5.88294
8.61412
18.15
31.4834
50.7616
57.7154
65.2688
63.6039
63.3154
64.2337
64.9944
64.6601
68.0661
55.5903
55.617
45.5978
247.633
92.2742
24.6769
8.74812
3.7264
2.41423
2.30696
2.16296
2.26467
2.7371
6.60278
14.9831
32.5118
47.134
51.4257
58.4426
60.228
59.1029
56.7214
57.077
17.4846
-11.2035
33.8363
56.9402
21.8762
7.95
4.02056
2.49951
1.7943
1.54335
1.35654
1.28957
1.35787
1.26236
2.16275
7.18644
12.0812
19.5969
29.8866
37.1679
36.2637
35.2851
39.5935
4.04442
-16.426
32.768
7.53239
4.03958
2.56846
1.68584
1.17804
0.904767
0.77926
0.72544
0.769263
0.929146
1.13427
1.34557
1.20557
1.21921
3.93743
8.67238
7.88254
6.59257
7.46791
5.89555
-0.314643
-7.2669
38.4945
2.75055
0.055108
0.246655
0.101891
0.0448946
0.0879156
0.178156
0.29001
0.451976
0.673216
0.914543
1.11526
1.27738
1.43885
1.39599
1.14826
1.25531
2.2236
3.02085
2.90663
0.174464
-2.74556
22.9828
2.76861
-1.97238
-1.44682
-1.36212
-1.00638
-0.633464
-0.280952
0.0212438
0.288564
0.543687
0.787128
0.983897
1.15092
1.28127
1.31694
1.33697
1.55753
1.88853
2.02686
1.97156
1.8262
2.27981
7.84931
2.223
-2.9007
-3.18758
-2.90591
-2.13419
-1.38772
-0.741792
-0.226419
0.175121
0.491157
0.739907
0.940358
1.09798
1.19023
1.20076
1.16305
1.16186
1.20712
1.32245
1.6608
2.26785
2.95944
3.49955
2.05011
-2.39389
-4.54033
-4.09602
-3.1077
-2.04964
-1.14174
-0.427621
0.0991014
0.469804
0.736388
0.926298
1.05288
1.1143
1.10312
1.04189
0.945875
0.858105
0.949604
1.40246
2.09509
2.85317
3.55376
2.44919
-0.662705
-4.20113
-4.46231
-3.47218
-2.30506
-1.29589
-0.484757
0.107953
0.512933
0.779099
0.952438
1.0575
1.09843
1.07981
1.02085
0.935853
0.906755
1.03646
1.43862
1.99655
2.6228
3.27113
2.41391
0.970317
-2.13455
-3.25274
-2.82114
-1.9337
-1.08025
-0.339307
0.239897
0.631218
0.873268
1.02201
1.10943
1.14586
1.13745
1.09946
1.06786
1.08329
1.2013
1.49166
1.90121
2.40109
2.93874
1.99765
1.55075
0.0969673
-1.1059
-1.34723
-1.00944
-0.495077
0.047024
0.511904
0.829833
1.01853
1.13078
1.19859
1.23317
1.24109
1.23178
1.2267
1.26461
1.3763
1.58264
1.89203
2.27304
2.68528
1.6486
1.60581
1.34975
0.754024
0.283956
0.167975
0.320174
0.601692
0.886793
1.08703
1.20142
1.26874
1.31136
1.33888
1.35627
1.36951
1.38867
1.43052
1.52167
1.68644
1.92468
2.23077
2.54717
1.58473
1.66874
1.97937
1.93344
1.57203
1.25891
1.15025
1.19593
1.29053
1.36182
1.3986
1.41804
1.4334
1.44912
1.4677
1.49257
1.52885
1.58329
1.66316
1.80196
1.99201
2.2397
2.49498
1.79521
1.9346
2.38553
2.5787
2.38004
2.06108
1.82538
1.70425
1.64857
1.61166
1.58127
1.56045
1.55137
1.55386
1.56824
1.59616
1.64103
1.7082
1.80629
1.91907
2.07278
2.26071
2.46613
2.14182
2.28619
2.66332
2.8814
2.78847
2.52302
2.25507
2.05248
1.9096
1.80599
1.73175
1.68259
1.6548
1.64546
1.65328
1.6785
1.72274
1.78855
1.87737
1.98696
2.1213
2.27575
2.44267
2.42791
2.52627
2.79394
2.95165
2.89979
2.69298
2.44915
2.23516
2.06529
1.93571
1.84108
1.7763
1.73655
1.71826
1.71939
1.73922
1.77796
1.83606
1.91397
2.01058
2.12504
2.25332
2.38776
2.55174
2.61454
2.77416
2.87119
2.83093
2.67686
2.48192
2.29513
2.1351
2.00639
1.90842
1.83837
1.79279
1.76874
1.7642
1.77802
1.8097
1.85894
1.92417
2.00486
2.09878
2.20192
2.30828
2.54595
2.57778
2.67788
2.72464
2.68736
2.57575
2.42985
2.28059
2.14451
2.02934
1.93769
1.86931
1.82257
1.7956
1.78683
1.79512
1.81971
1.86046
1.91296
1.97865
2.0545
2.13697
2.22145
2.47653
2.49265
2.5436
2.56305
2.52918
2.44787
2.34016
2.22458
2.11389
2.01598
1.93493
1.87207
1.82723
1.79955
1.78801
1.79157
1.80916
1.83915
1.88313
1.93626
1.99699
2.0626
2.12961
2.37456
2.3845
2.40661
2.40831
2.37691
2.31548
2.23471
2.14549
2.05693
1.97582
1.9064
1.85075
1.80957
1.78274
1.76972
1.76978
1.78203
1.80541
1.83942
1.88142
1.92959
1.98164
2.03488
2.25653
2.26455
2.27071
2.26203
2.23273
2.18444
2.12245
2.05299
1.9824
1.91604
1.85769
1.8096
1.77287
1.74785
1.73437
1.73198
1.73998
1.75751
1.78373
1.81644
1.8544
1.89563
1.93802
2.13093
2.13687
2.13501
2.12146
2.09462
2.05562
2.00696
1.95227
1.89588
1.84186
1.79335
1.75243
1.72033
1.69761
1.68437
1.68036
1.68506
1.69773
1.71737
1.74299
1.7728
1.80539
1.83916
2.0012
2.00516
1.99959
1.98455
1.9606
1.92861
1.88974
1.84617
1.80092
1.757
1.71691
1.68243
1.65475
1.63452
1.62198
1.61702
1.61928
1.62817
1.6429
1.66261
1.68587
1.71157
1.73846
1.86941
1.87187
1.86487
1.85017
1.82925
1.80281
1.77137
1.73634
1.69984
1.6641
1.63105
1.60219
1.57855
1.56079
1.54921
1.5438
1.54433
1.55036
1.56125
1.57634
1.59436
1.61457
1.63598
1.73692
1.73835
1.7311
1.71762
1.69966
1.67774
1.65213
1.62377
1.59419
1.56505
1.53784
1.51377
1.49373
1.4783
1.46781
1.46232
1.46168
1.46556
1.47347
1.48474
1.49883
1.51474
1.53176
1.60456
1.60528
1.59839
1.58649
1.57126
1.55311
1.53215
1.50907
1.48502
1.46123
1.43885
1.41884
1.40193
1.38865
1.37929
1.37397
1.3726
1.37493
1.38059
1.38909
1.39994
1.41239
1.4259
1.47274
1.47299
1.46675
1.45649
1.44372
1.42871
1.41153
1.39271
1.37311
1.35368
1.33528
1.31869
1.3045
1.29315
1.28492
1.27994
1.27814
1.27938
1.28336
1.28972
1.29804
1.30778
1.31847
1.34166
1.34159
1.33611
1.32742
1.3168
1.30444
1.29037
1.27501
1.25904
1.24317
1.22808
1.21437
1.20251
1.19289
1.18575
1.18119
1.17922
1.17971
1.18245
1.18717
1.19353
1.20116
1.20959
1.21136
1.2111
1.2064
1.19912
1.19037
1.18024
1.16875
1.15624
1.14325
1.13033
1.11798
1.10669
1.09685
1.08876
1.08263
1.07857
1.07658
1.07659
1.07844
1.08192
1.08678
1.0928
1.09938
1.08185
1.08146
1.07751
1.07148
1.06433
1.05609
1.04675
1.03661
1.02609
1.0156
1.00556
0.996328
0.988218
0.981481
0.97629
0.972741
0.970855
0.970578
0.971799
0.974349
0.978016
0.982522
0.987895
0.953035
0.95261
0.949327
0.94439
0.938616
0.931961
0.924427
0.916273
0.907814
0.899375
0.89127
0.883785
0.877171
0.871629
0.867303
0.864275
0.862571
0.862158
0.862954
0.864833
0.867635
0.871185
0.875354
0.824837
0.824444
0.821752
0.817753
0.813151
0.807844
0.801842
0.795359
0.788635
0.781922
0.775461
0.769474
0.764158
0.759673
0.756136
0.753618
0.752145
0.751697
0.752215
0.753603
0.755741
0.758494
0.761724
0.697153
0.696857
0.694673
0.691482
0.687881
0.683722
0.679025
0.673962
0.668711
0.663466
0.658409
0.653711
0.649525
0.645974
0.643153
0.641119
0.639898
0.639476
0.639811
0.640832
0.642442
0.644533
0.646987
0.569883
0.569736
0.567984
0.565493
0.562753
0.559578
0.556004
0.552155
0.548165
0.544177
0.540328
0.536745
0.533543
0.530816
0.528636
0.52705
0.526079
0.525715
0.525927
0.52666
0.527838
0.529377
0.531175
0.442943
0.442977
0.441591
0.439717
0.437723
0.435401
0.432798
0.429999
0.427095
0.424194
0.421391
0.418776
0.416433
0.41443
0.412822
0.411643
0.410909
0.410616
0.41074
0.411243
0.412067
0.413147
0.414405
0.316211
0.316424
0.315377
0.314071
0.312732
0.311154
0.309403
0.307519
0.305566
0.303614
0.301725
0.299959
0.298373
0.297013
0.295916
0.295105
0.294593
0.294377
0.294442
0.294761
0.295295
0.295997
0.296808
0.189735
0.190066
0.189302
0.18852
0.187767
0.186859
0.185865
0.18479
0.183676
0.182562
0.18148
0.180468
0.179555
0.17877
0.178132
0.177658
0.177353
0.177218
0.177246
0.17742
0.177718
0.178111
0.178554
0.0628039
0.0632334
0.0630289
0.0627917
0.0625514
0.0622605
0.0619685
0.0616451
0.0613158
0.0609866
0.0606666
0.0603669
0.0600961
0.0598626
0.0596732
0.0595327
0.0594439
0.059407
0.0594204
0.0594797
0.0595775
0.0597031
0.0598366
311.215
324.884
345.298
341.132
183.161
213.996
242.852
246.039
103.93
134.378
168.648
186.162
60.4985
65.152
84.0512
101.851
42.2011
38.4671
36.7071
38.8539
32.9339
32.2736
32.0164
32.5432
33.8502
33.9446
34.0566
34.7416
38.5108
38.0131
38.1676
38.4436
34.4231
38.5238
40.2758
40.4731
14.7784
21.8167
25.3447
24.2906
3.96062
4.58705
5.5092
8.04485
3.80903
3.89129
4.02208
4.17908
3.68276
3.86715
3.93557
3.93664
3.29993
3.51631
3.69393
3.78021
2.97265
3.18818
3.4179
3.53709
2.76279
2.93419
3.15384
3.30092
2.67283
2.79936
2.94663
3.07412
2.62636
2.73004
2.82723
2.91566
2.56943
2.64742
2.71859
2.7833
2.48615
2.54581
2.59993
2.6489
2.38494
2.43189
2.47483
2.5138
2.28187
2.3189
2.3532
2.38469
2.17752
2.20702
2.23463
2.26025
2.07308
2.09671
2.11904
2.13999
1.96866
1.98772
2.00586
2.02303
1.86379
1.87919
1.89397
1.90808
1.75828
1.77076
1.78284
1.79445
1.65193
1.66205
1.67192
1.68147
1.5446
1.5528
1.56085
1.56871
1.43621
1.44284
1.44939
1.45584
1.32673
1.33207
1.33739
1.34266
1.21619
1.22049
1.22479
1.22908
1.10465
1.10809
1.11157
1.11505
0.992128
0.994899
0.997697
1.00051
0.878704
0.880905
0.883133
0.885382
0.764329
0.766043
0.767778
0.769532
0.64896
0.650254
0.651564
0.652887
0.532617
0.533555
0.534502
0.535455
0.415406
0.416048
0.41669
0.417329
0.29744
0.297855
0.298245
0.298621
0.178883
0.179088
0.179302
0.17947
0.0599233
0.0599698
0.0599881
0.0599595
367.122
303.332
293.608
362.66
434.258
393.533
277.081
228.828
199.855
170.923
140.534
108.744
75.3109
49.6764
74.9936
117.809
195.619
296.881
321.103
259.942
205.765
184.325
237.711
304.332
271.867
138.866
82.0784
56.7754
21.0371
18.0949
13.7528
15.0684
11.7446
11.0262
15.4534
41.2317
149.341
237.391
181.035
123.731
102.416
124.468
165.765
90.2612
31.9824
14.3757
7.40993
6.1554
5.51245
4.50863
4.53853
4.32389
3.74692
4.64416
12.0636
62.067
222.498
119.902
80.1093
50.0287
70.6316
92.7013
15.7837
7.23555
4.86613
4.52668
5.01458
4.97391
4.25251
2.95414
1.76326
1.10105
1.06947
3.93594
24.1056
101.615
45.9443
40.4718
61.1715
109.533
89.2326
7.51096
3.73881
2.10648
2.06572
3.21373
3.99617
3.45833
2.3051
1.05726
0.360502
0.233286
1.34123
11.3801
45.2488
33.9499
38.3495
94.1498
169.357
83.6876
7.65571
2.58863
-0.182746
-1.6035
-0.837954
0.876949
2.13259
1.856
1.02438
0.486888
0.421862
1.29598
4.81108
17.3154
36.1873
40.4475
67.9137
175.739
91.8286
8.24283
1.7953
-2.04119
-3.81093
-3.40706
-2.88046
-1.62311
-0.00114555
0.787534
0.855696
0.917269
1.56229
1.45177
6.71562
38.8089
40.3847
44.7261
103.127
155.874
18.3878
2.14374
-2.72833
-3.94348
-4.14049
-4.41768
-3.87031
-2.08589
0.114571
1.13626
1.13752
1.87731
1.22648
3.055
38.7334
39.0188
40.8654
47.6998
136.27
60.0669
1.11163
-1.51154
-2.92697
-4.05488
-4.78054
-4.37661
-2.80373
-0.0202136
2.57568
1.74679
2.20247
1.75082
2.54997
23.4103
22.1528
27.2517
40.3326
66.0759
63.9344
6.42482
4.27577
-0.0459225
-2.56588
-3.21584
-2.94305
-1.87096
0.461561
1.6432
1.13485
2.20019
1.97577
2.50688
21.8509
27.4914
19.8698
11.525
16.8756
51.6488
39.258
22.5688
4.462
-1.42944
-0.59022
0.285916
0.458856
-1.09072
-0.177272
0.714612
2.36519
2.5628
3.5221
4.16952
4.34139
13.8943
10.5808
12.561
55.0797
105.634
64.4056
-5.03026
-19.2238
-7.04446
-2.74717
-7.27047
-3.76202
5.43361
3.47434
3.34507
3.2453
4.72757
3.98091
4.14166
4.05669
5.19737
15.9204
51.1199
126.535
113.213
65.8112
21.3627
10.1738
29.7825
31.4551
18.0192
3.79004
3.42297
3.60898
3.41171
4.07827
3.87232
3.99556
4.03405
3.93443
4.35738
16.0955
30.4738
24.89
23.2841
25.8672
22.4425
10.633
3.39521
3.26483
3.47569
3.34069
3.41317
3.31949
3.59014
3.66343
3.80692
3.86429
3.86154
3.84695
3.85679
4.11441
3.41409
3.25201
3.19224
3.17169
3.15649
3.16268
3.14549
3.27631
3.25308
3.2948
3.21743
3.41466
3.43991
3.58753
3.6565
3.66125
3.63266
3.58873
3.45034
3.29382
3.18318
3.12411
3.09283
3.08344
3.11668
3.11826
3.15756
3.14276
3.16846
3.0985
3.31304
3.229
3.36402
3.43261
3.44504
3.42589
3.38159
3.29316
3.18893
3.10973
3.05683
3.02876
3.01698
3.01851
3.01841
3.04138
3.02861
3.04747
2.97002
3.11328
3.04486
3.15963
3.2195
3.2363
3.22572
3.19327
3.13849
3.07157
3.01153
2.96683
2.93798
2.92289
2.92182
2.9231
2.93738
2.92174
2.92457
2.83965
2.71625
2.8805
2.97283
3.02416
3.04392
3.04142
3.02122
2.98553
2.94046
2.89715
2.86243
2.83846
2.82468
2.82161
2.82269
2.8357
2.82549
2.81832
2.77504
2.67595
2.72295
2.79856
2.84479
2.86685
2.87054
2.85978
2.83743
2.80788
2.77749
2.75112
2.73136
2.71923
2.717
2.72078
2.73578
2.73736
2.73824
2.74167
2.69758
2.57331
2.6368
2.67879
2.70193
2.70995
2.70608
2.69307
2.67419
2.65339
2.63398
2.61824
2.60809
2.60727
2.61461
2.63343
2.64884
2.66338
2.70203
2.68771
2.43319
2.48659
2.52403
2.54694
2.5577
2.55874
2.55239
2.54106
2.52727
2.51296
2.49971
2.49023
2.49012
2.50071
2.52406
2.55327
2.58596
2.64497
2.6375
2.30006
2.34519
2.37844
2.40044
2.41272
2.41708
2.41531
2.40914
2.40011
2.38876
2.3755
2.36396
2.36243
2.37476
2.4022
2.44215
2.49111
2.56794
2.54713
2.17287
2.21109
2.24043
2.26106
2.27395
2.28036
2.28161
2.27883
2.27266
2.26182
2.24512
2.22782
2.22238
2.23459
2.26411
2.3078
2.35557
2.45674
2.41334
2.05019
2.08254
2.10828
2.1273
2.14019
2.14779
2.15097
2.15035
2.14556
2.13276
2.1092
2.08321
2.07269
2.08351
2.11209
2.15321
2.17
2.26502
2.2228
1.93058
1.95798
1.98049
1.99786
2.01039
2.01861
2.02307
2.02397
2.01975
2.00355
1.97184
1.93704
1.92236
1.93061
1.94976
1.98225
1.95702
1.99836
1.98708
1.81311
1.83631
1.85592
1.87163
1.88357
1.89208
1.89752
1.89986
1.89657
1.87855
1.8423
1.8017
1.78573
1.79157
1.80621
1.82547
1.75358
1.73806
1.79589
1.69695
1.71656
1.73357
1.74765
1.75886
1.76743
1.77371
1.77766
1.77674
1.76196
1.73047
1.68784
1.67813
1.68549
1.69446
1.69771
1.62092
1.56722
1.68732
1.58153
1.59805
1.61271
1.6252
1.63554
1.64395
1.65081
1.65627
1.65876
1.65095
1.62751
1.60089
1.59757
1.60849
1.60892
1.60072
1.5547
1.52031
1.62549
1.46642
1.48028
1.49282
1.50377
1.51315
1.52114
1.52814
1.53446
1.53962
1.53977
1.52959
1.51807
1.52283
1.53804
1.53482
1.52014
1.51251
1.51529
1.58571
1.35136
1.36293
1.37359
1.3831
1.39145
1.3988
1.40544
1.41167
1.41753
1.42184
1.42139
1.41885
1.42551
1.43855
1.4421
1.43739
1.44598
1.46992
1.52106
1.23621
1.24583
1.25483
1.26301
1.27033
1.27688
1.28285
1.28843
1.29365
1.29852
1.30222
1.30019
1.30754
1.31887
1.32716
1.33246
1.34774
1.37723
1.41681
1.12088
1.12884
1.13638
1.14333
1.14964
1.15534
1.16054
1.1654
1.16982
1.1738
1.17701
1.17847
1.18417
1.19404
1.20501
1.21545
1.23089
1.25623
1.28605
1.00525
1.01178
1.01802
1.02382
1.02913
1.03395
1.03839
1.04262
1.04648
1.04996
1.05348
1.05684
1.06254
1.07124
1.08165
1.09208
1.10441
1.12284
1.14357
0.889169
0.894431
0.899472
0.904159
0.908472
0.912395
0.916067
0.919651
0.922967
0.926083
0.929706
0.93389
0.939438
0.946517
0.954876
0.963673
0.97274
0.985086
0.998343
0.77249
0.776607
0.780519
0.784139
0.787467
0.790479
0.793345
0.796179
0.798847
0.801507
0.804776
0.808647
0.813484
0.819052
0.825497
0.832356
0.838698
0.8466
0.854409
0.655118
0.6582
0.661071
0.663695
0.666082
0.668203
0.670247
0.672279
0.674229
0.676298
0.678898
0.681945
0.685736
0.689827
0.694524
0.699391
0.703572
0.708425
0.712696
0.537056
0.539217
0.541152
0.542861
0.544367
0.545652
0.546901
0.548141
0.54933
0.550651
0.552351
0.554345
0.556853
0.559415
0.562415
0.565392
0.567916
0.570693
0.57291
0.418387
0.419731
0.420829
0.421697
0.422379
0.422888
0.42336
0.423787
0.424128
0.424534
0.425161
0.425968
0.427084
0.428178
0.429602
0.430943
0.432196
0.433552
0.434658
0.299216
0.299838
0.300176
0.300269
0.300176
0.299924
0.299575
0.299107
0.298505
0.297895
0.297387
0.296982
0.296736
0.296483
0.29648
0.296459
0.296634
0.296944
0.297365
0.179669
0.179637
0.17927
0.178627
0.177754
0.176673
0.175412
0.173972
0.172383
0.170736
0.169093
0.167469
0.165886
0.16431
0.162928
0.161636
0.16073
0.160112
0.159961
0.0597909
0.0591597
0.0581143
0.0567253
0.0550181
0.0530378
0.0508115
0.0483583
0.0457497
0.0430368
0.0402253
0.0373087
0.0343204
0.0312745
0.0284373
0.0256918
0.0236026
0.021962
0.0213173
)
;

boundaryField
{
    leftWall
    {
        type            calculated;
        value           nonuniform List<scalar> 
50
(
1304.46
1248.98
1191.35
1131.95
1072.06
1012.98
955.622
901.739
820.638
730.446
679.179
644.824
509.086
247.633
56.9402
7.53239
2.75055
2.76861
2.223
2.05011
2.44919
2.41391
1.99765
1.6486
1.58473
1.79521
2.14182
2.42791
2.55174
2.54595
2.47653
2.37456
2.25653
2.13093
2.0012
1.86941
1.73692
1.60456
1.47274
1.34166
1.21136
1.08185
0.953035
0.824837
0.697153
0.569883
0.442943
0.316211
0.189735
0.0628039
)
;
    }
    rightWall
    {
        type            calculated;
        value           nonuniform List<scalar> 
50
(
596.437
549.935
516.187
486.043
453.497
419.841
387.748
359.19
321.103
237.391
222.498
101.615
45.2488
17.3154
6.71562
3.055
2.54997
2.50688
3.5221
4.72757
4.07827
3.59014
3.41466
3.31304
3.11328
2.71625
2.67595
2.69758
2.68771
2.6375
2.54713
2.41334
2.2228
1.98708
1.79589
1.68732
1.62549
1.58571
1.52106
1.41681
1.28605
1.14357
0.998343
0.854409
0.712696
0.57291
0.434658
0.297365
0.159961
0.0213173
)
;
    }
    lowerWall
    {
        type            calculated;
        value           nonuniform List<scalar> 
62
(
1333.89
1318.07
1288.18
1247.98
1204.24
1160.17
1115.77
1069.96
1023.3
977.196
933.852
896.506
867.965
849.402
839.695
834.518
832.514
834.336
837.78
846.953
858.343
865.362
865.899
836.5
775.66
714.135
652.267
590.105
527.423
463.063
398.18
373.809
387.478
407.892
403.726
885.057
833.125
763.577
681.247
601.841
535.815
483.052
437.238
914.179
836.442
775.292
784.42
791.402
691.16
609.427
562.144
506.533
455.838
424.17
445.716
507.423
565.043
569.434
556.205
568.206
594.502
621.632
)
;
    }
    atmosphere
    {
        type            calculated;
        value           nonuniform List<scalar> 
46
(
0
0
0
0
0
0
0
0
0
0
0
0
0
0
0
0
0
0
0
0
0
0
0
0
0
-3.8575e-07
-5.0125e-05
-0.000344374
-0.00123777
-0.00264987
-0.00443618
-0.00657994
-0.00899845
-0.0117017
-0.0146874
-0.017839
-0.0211191
-0.0245563
-0.0281822
-0.0319539
-0.0359041
-0.0395391
-0.0432895
-0.0460132
-0.0483958
-0.0491548
)
;
    }
    defaultFaces
    {
        type            empty;
    }
}


// ************************************************************************* //
