/*--------------------------------*- C++ -*----------------------------------*\
  =========                 |
  \\      /  F ield         | OpenFOAM: The Open Source CFD Toolbox
   \\    /   O peration     | Website:  https://openfoam.org
    \\  /    A nd           | Version:  13
     \\/     M anipulation  |
\*---------------------------------------------------------------------------*/
FoamFile
{
    format      ascii;
    class       volScalarField;
    location    "0.85";
    object      p_rgh;
}
// * * * * * * * * * * * * * * * * * * * * * * * * * * * * * * * * * * * * * //

dimensions      [1 -1 -2 0 0 0 0];

internalField   nonuniform List<scalar> 
2268
(
1333.89
1318.07
1288.18
1247.98
1204.24
1160.17
1115.77
1069.96
1023.3
977.196
933.852
896.506
867.965
849.402
839.695
834.518
832.514
834.336
837.78
846.953
858.343
865.362
865.899
1337.27
1320.45
1288.8
1246.46
1201.56
1158.76
1115.54
1069.66
1022.71
976.127
932.167
894.38
865.862
847.713
838.892
834.272
832.089
829.829
832.207
842.236
854.014
861.352
863.944
1338.5
1320.75
1288.11
1244.5
1199.55
1157.69
1114.98
1068.98
1021.48
973.867
928.574
889.777
861.093
843.548
835.988
835.37
832.441
828.432
831.414
842.13
853.497
859.915
861.277
1337.96
1319.82
1286.93
1242.19
1196.8
1156.04
1114.33
1068.12
1019.67
970.333
922.852
882.474
853.64
837.148
830.856
831.952
835.886
836.885
843.568
854.6
859.978
858.144
858.266
1336.93
1318.81
1286.05
1240.17
1194.45
1155.2
1114.59
1067.53
1017.43
965.497
914.848
872.203
843.259
828.323
823.942
826.833
833.933
842.717
852.545
860.383
860.739
855.24
854.969
1336.7
1318.68
1286.53
1240.04
1194.41
1156.75
1116.51
1067.57
1015.23
959.544
904.147
858.412
829.719
817.223
815.567
820.646
830.942
844.648
859.207
867.287
862.113
851.772
851.143
1338.2
1320.22
1289.57
1243.32
1197.84
1160.72
1119.99
1068.57
1013.11
950.864
888.375
838.844
811.626
803.517
805.893
813.139
826.789
845.942
867.202
875.597
863.301
846.82
845.628
1343.18
1324.57
1296.6
1251.2
1205.18
1167.7
1124.14
1069.72
1008.65
938.259
866.492
810.681
786.122
785.481
794.131
803.951
821.043
847.254
877.95
888.634
865.388
838.085
839.599
914.179
836.442
775.292
784.42
791.402
691.16
609.427
562.144
506.533
455.838
424.17
445.716
507.423
565.043
569.434
556.205
568.206
594.502
621.632
920.974
821.919
751.155
766.73
779.551
689.598
602.391
541.661
483.946
432.807
404.613
438.655
510.132
573.878
571.858
544.747
549.991
579.719
621.67
910.114
791.623
720.606
742.619
781.502
708.574
596.962
496.847
440.86
405.863
386.539
426.158
514.639
580.599
571.709
524.53
520.137
579.105
623.781
886.399
759.696
661.542
711.752
802.216
742.353
584.465
452.676
390.041
330.939
310.501
383.713
489.701
570.597
569.022
517.949
528.032
581.334
616.793
865.524
717.156
651.45
706.9
833.221
775.205
562.292
393.435
336.526
293.041
254.652
262.226
333.069
436.948
522.462
520.79
535.215
585.538
621.685
853.648
724.386
652.156
732.598
862.432
801.128
520.877
350.057
321.175
281.952
244.854
235.293
266.65
330.601
423.977
534.912
564.255
612.89
665.564
857.367
764.208
694.953
729.447
881.392
817.871
474.371
335.718
306.128
267.975
231.111
238.949
329.829
455.903
504.235
513.208
591.016
676.493
683.609
872.135
792.376
778.935
746.962
882.518
829.371
444.947
318.312
288.476
268.712
223.308
228.297
389.663
458.818
504.279
541.859
614.486
698.033
676.195
1354.1
1336.1
1315.76
1274.07
1225.74
1179.07
1130.41
1065.29
1003.83
917.545
815.466
734.53
716.352
741.306
768.038
788.962
812.764
850.726
903.9
912.624
852.252
809.826
826.818
1247.38
1294.18
1297.98
1200.56
1081.72
1072.37
1128.87
1119.22
1004.56
711.566
416.229
284.768
284.472
385.736
492.654
526.261
593.862
701.495
676.629
577.681
446.836
416.502
640.524
876.812
812.653
809.738
1038.8
1166.44
1046.33
928.677
646.799
388.9
173.988
97.0552
77.5558
75.6318
72.5159
67.6907
85.5935
127.512
167.155
247.382
312.464
188.393
86.3368
125.912
721.088
663.569
977.519
1097.33
968.585
600.538
155.178
61.328
89.3895
159.124
181.721
92.7765
74.2137
72.5538
71.2912
69.6045
69.5553
73.5772
120.999
360.407
324.907
79.8282
64.4698
592.378
576.651
541.72
277.481
121.721
38.1003
7.02346
9.39207
39.2177
161.227
184.565
205.563
210.729
92.8768
73.5132
68.4752
70.0662
71.9014
165.366
371.601
360.128
278.175
58.3106
354.006
201.946
44.5799
11.0151
6.48657
3.89951
3.58366
3.40336
3.55491
6.97187
116.515
192.295
211.667
226.29
230.581
137.619
105.861
90.4596
262.546
398.133
357.694
326.917
80.895
146.03
28.597
10.5736
5.59731
3.85368
3.10137
2.83638
2.64685
2.59217
2.67098
2.94091
7.27673
133.671
210.371
217.611
227.413
234.692
173.856
302.451
401.243
378.675
347.248
101.386
49.0845
6.74714
4.25901
3.13591
2.594
2.31611
2.19013
2.13821
2.17962
2.35002
2.54495
2.75728
2.68588
2.63179
75.9868
194.515
154.219
26.9662
9.5711
13.2546
253.314
370.693
168.02
7.60783
1.92412
1.86115
1.64387
1.58043
1.62303
1.7132
1.82551
1.98751
2.20835
2.44967
2.65037
2.81254
2.97427
2.93249
2.6887
2.80981
3.82472
4.79532
5.2549
5.03403
135.85
294.915
5.9642
-0.221469
0.22625
0.298997
0.653879
1.02676
1.37927
1.68147
1.9489
2.20433
2.4475
2.64418
2.81122
2.94169
2.97794
3.00071
3.24103
3.66522
3.95446
4.224
4.12655
4.94811
132.204
4.77684
-0.94882
-1.39369
-1.12034
-0.348765
0.397698
1.04363
1.559
1.96054
2.27681
2.52556
2.72584
2.88362
2.97591
2.98695
2.95432
3.24857
4.07296
4.18829
4.36047
4.59084
5.18416
5.51339
5.11482
0.613002
-2.60192
-2.18474
-1.19709
-0.139024
0.768872
1.48299
2.00971
2.38052
2.64712
2.83693
2.96379
3.02525
3.01551
2.97309
3.04584
3.89657
4.0164
4.45335
4.65146
5.24963
5.63733
4.90288
2.89584
-1.7651
-2.42545
-1.43586
-0.269249
0.739917
1.55105
2.14377
2.54875
2.81491
2.98824
3.09335
3.13432
3.11563
3.08331
3.21872
3.19152
3.4131
4.26565
6.00665
6.68161
7.26091
4.66903
4.72677
1.53586
-0.908771
-0.65651
0.227461
1.08079
1.8217
2.4009
2.79222
3.03426
3.183
3.27044
3.30687
3.29846
3.26106
3.22888
3.77395
4.23406
4.519
4.99177
6.72961
7.26725
4.29367
4.66844
3.75707
1.83979
0.959081
1.27851
1.79134
2.33324
2.7981
3.11602
3.30472
3.41697
3.48482
3.51958
3.52739
3.51805
3.51291
3.5508
4.29094
5.36063
5.83546
6.30725
7.17216
4.06252
4.04018
4.01197
3.68525
2.81885
2.58239
2.73203
3.01314
3.29818
3.49841
3.6128
3.68013
3.72289
3.75052
3.76791
3.78105
3.80007
3.84191
3.93306
4.72386
5.8681
5.81507
5.0007
4.12153
4.20991
4.5414
4.5095
4.18354
3.81154
3.68729
3.73257
3.82712
3.8984
3.93518
3.95462
3.97002
3.98597
4.00455
4.02937
4.06545
4.11987
4.19975
4.33855
4.86164
5.11451
5.06729
4.45704
4.59688
5.0543
5.24766
5.04966
4.72846
4.48772
4.36606
4.31035
4.27344
4.24305
4.22223
4.21314
4.2157
4.23017
4.25804
4.30281
4.36997
4.46809
4.58152
4.73456
4.92248
5.12791
4.9288
5.07323
5.45188
5.66992
5.57639
5.31032
5.04213
4.83946
4.69657
4.59296
4.51872
4.46956
4.44176
4.43243
4.44025
4.46548
4.50971
4.57552
4.66434
4.77394
4.90827
5.06272
5.22964
5.34008
5.43845
5.7064
5.8641
5.81211
5.6052
5.36132
5.14733
4.97746
4.84788
4.75325
4.68846
4.64871
4.63042
4.63155
4.65138
4.69013
4.74822
4.82613
4.92274
5.0372
5.16548
5.29993
5.5891
5.6519
5.81156
5.90859
5.86831
5.71423
5.51928
5.33248
5.17246
5.04375
4.94578
4.87573
4.83015
4.8061
4.80156
4.81538
4.84706
4.8963
4.96153
5.04222
5.13614
5.23928
5.34564
5.7085
5.74034
5.84043
5.8872
5.84992
5.7383
5.5924
5.44314
5.30707
5.19189
5.10025
5.03186
4.98512
4.95815
4.94939
4.95767
4.98227
5.02301
5.07551
5.14121
5.21705
5.29952
5.384
5.76428
5.78039
5.83135
5.85079
5.81692
5.73562
5.6279
5.51232
5.40163
5.30373
5.22267
5.15982
5.11498
5.0873
5.07576
5.07932
5.09691
5.1269
5.17088
5.22401
5.28473
5.35035
5.41736
5.7875
5.79744
5.81955
5.82125
5.78986
5.72842
5.64765
5.55843
5.46987
5.38876
5.31934
5.26369
5.22251
5.19568
5.18266
5.18273
5.19497
5.21835
5.25236
5.29436
5.34253
5.39458
5.44782
5.79467
5.80269
5.80885
5.80017
5.77086
5.72258
5.66058
5.59113
5.52053
5.45417
5.39583
5.34774
5.31101
5.28598
5.27251
5.27011
5.27811
5.29565
5.32187
5.35458
5.39253
5.43376
5.47616
5.79426
5.8002
5.79834
5.78479
5.75795
5.71895
5.6703
5.6156
5.55921
5.50519
5.45668
5.41576
5.38366
5.36094
5.3477
5.34369
5.34839
5.36106
5.3807
5.40632
5.43613
5.46872
5.50249
5.78973
5.79369
5.78812
5.77308
5.74913
5.71713
5.67827
5.6347
5.58945
5.54553
5.50543
5.47096
5.44328
5.42305
5.4105
5.40554
5.40781
5.4167
5.43142
5.45113
5.47439
5.50009
5.52699
5.78312
5.78559
5.77859
5.76389
5.74297
5.71653
5.68509
5.65006
5.61356
5.57782
5.54477
5.51591
5.49227
5.47451
5.46292
5.45752
5.45805
5.46407
5.47497
5.49006
5.50808
5.52829
5.54969
5.77584
5.77726
5.77001
5.75653
5.73857
5.71666
5.69104
5.66268
5.6331
5.60396
5.57676
5.55269
5.53264
5.51722
5.50672
5.50123
5.50059
5.50448
5.51238
5.52366
5.53775
5.55366
5.57068
5.76867
5.76939
5.7625
5.7506
5.73537
5.71722
5.69626
5.67318
5.64913
5.62534
5.60296
5.58294
5.56604
5.55276
5.5434
5.53808
5.5367
5.53904
5.5447
5.5532
5.56404
5.5765
5.59
5.76205
5.76229
5.75605
5.74579
5.73302
5.71801
5.70083
5.68201
5.66242
5.64298
5.62459
5.60799
5.5938
5.58245
5.57423
5.56924
5.56745
5.56868
5.57267
5.57902
5.58735
5.59709
5.60777
5.75615
5.75609
5.75061
5.74192
5.7313
5.71894
5.70487
5.68951
5.67354
5.65767
5.64258
5.62886
5.61701
5.60739
5.60025
5.59569
5.59372
5.59421
5.59695
5.60167
5.60803
5.61565
5.62409
5.75106
5.75079
5.74609
5.73882
5.73006
5.71993
5.70844
5.69593
5.68294
5.67002
5.65768
5.64639
5.63654
5.62845
5.62232
5.61826
5.61627
5.61628
5.61813
5.62161
5.62647
5.63249
5.63907
5.74673
5.74635
5.74239
5.73637
5.72922
5.72097
5.71163
5.70149
5.69097
5.68049
5.67045
5.66121
5.6531
5.64637
5.64118
5.63763
5.63574
5.63546
5.63669
5.63924
5.6429
5.64741
5.65278
5.74312
5.74269
5.73941
5.73447
5.7287
5.72204
5.71451
5.70635
5.69789
5.68946
5.68135
5.67387
5.66725
5.66171
5.65738
5.65436
5.65265
5.65224
5.65304
5.65491
5.65772
5.66127
5.66544
5.74011
5.73972
5.73703
5.73303
5.72843
5.72312
5.71712
5.71063
5.70391
5.6972
5.69074
5.68475
5.67943
5.67495
5.67141
5.66889
5.66742
5.66697
5.66749
5.66888
5.67102
5.67377
5.677
5.73762
5.73733
5.73514
5.73195
5.72835
5.72419
5.7195
5.71443
5.70918
5.70394
5.69888
5.69418
5.68999
5.68644
5.68362
5.68159
5.68037
5.67995
5.68028
5.6813
5.68291
5.685
5.68746
5.73555
5.7354
5.73365
5.73116
5.72842
5.72524
5.72167
5.71782
5.71383
5.70984
5.70599
5.70241
5.69921
5.69648
5.6943
5.69272
5.69174
5.69138
5.69159
5.69232
5.6935
5.69504
5.69684
5.7338
5.73384
5.73245
5.73058
5.72858
5.72626
5.72366
5.72086
5.71795
5.71505
5.71225
5.70963
5.70729
5.70529
5.70368
5.7025
5.70177
5.70147
5.7016
5.7021
5.70293
5.70401
5.70526
5.73226
5.73248
5.73143
5.73013
5.72879
5.72721
5.72546
5.72357
5.72162
5.71967
5.71778
5.71601
5.71443
5.71307
5.71197
5.71116
5.71065
5.71043
5.7105
5.71081
5.71135
5.71205
5.71286
5.73098
5.73131
5.73055
5.72977
5.72901
5.72811
5.72711
5.72604
5.72492
5.72381
5.72273
5.72172
5.7208
5.72002
5.71938
5.71891
5.7186
5.71847
5.71849
5.71867
5.71897
5.71936
5.7198
5.72925
5.72968
5.72947
5.72923
5.72899
5.7287
5.72841
5.72809
5.72776
5.72743
5.72711
5.72681
5.72654
5.72631
5.72612
5.72598
5.72589
5.72585
5.72586
5.72592
5.72602
5.72615
5.72628
844.655
858.323
878.737
874.571
753.568
783.217
803.665
811.587
202.138
418.114
714.193
815.316
76.3737
262.646
695.41
832.493
54.1351
90.2118
83.7393
53.4132
40.5306
39.7901
39.4175
40.4374
41.9467
42.0069
42.1035
42.8297
47.362
46.8443
46.9987
47.2748
300.905
70.9841
49.8912
59.6217
288.795
329.064
458.171
493.87
5.87355
6.49781
7.41609
66.7813
5.83981
5.87746
5.95588
6.1122
5.89411
5.99458
5.98163
5.97558
7.62833
7.27699
5.8897
5.94223
7.50399
7.64674
7.57243
5.82565
6.14992
7.58401
7.69088
6.13448
5.20941
5.44321
5.88586
5.75276
5.28813
5.39182
5.48901
5.57743
5.3564
5.43439
5.50556
5.57027
5.39831
5.45797
5.5121
5.56107
5.42229
5.46925
5.51219
5.55116
5.44442
5.48145
5.51575
5.54725
5.46527
5.49476
5.52238
5.548
5.48602
5.50965
5.53198
5.55293
5.5068
5.52585
5.544
5.56117
5.52712
5.54252
5.5573
5.57141
5.54681
5.55929
5.57136
5.58297
5.56565
5.57577
5.58564
5.59519
5.58352
5.59171
5.59976
5.60762
5.60032
5.60695
5.6135
5.61994
5.61603
5.62138
5.6267
5.63196
5.63069
5.63499
5.63929
5.64358
5.64434
5.64778
5.65126
5.65474
5.65701
5.65979
5.66258
5.6654
5.66878
5.67099
5.67321
5.67546
5.6796
5.68132
5.68305
5.68481
5.68943
5.69072
5.69203
5.69336
5.69828
5.69922
5.70017
5.70112
5.70627
5.70691
5.70755
5.70819
5.71349
5.71391
5.7143
5.71467
5.72013
5.72034
5.72055
5.72072
5.72637
5.72641
5.72643
5.7264
898.306
831.022
805.724
790.535
901.395
852.708
424.999
281.565
283.46
285.464
236.17
241.306
333.255
340.052
325.662
365.593
546.164
663.315
651.39
898.166
584.588
426.825
610.206
878.677
797.952
240.263
142.983
199.19
163.831
141.158
109.651
50.1087
12.7415
12.6562
17.7096
209.479
623.957
781.983
824.642
497.762
425.327
642.006
846.075
611.386
35.8606
20.1947
22.905
7.24271
6.60015
5.59873
5.63504
5.43719
4.87703
6.24276
14.1317
166.679
818.59
884.494
880.801
851.773
875.684
876.847
402.934
9.6191
6.43309
5.80421
6.27563
6.23488
5.51394
4.21835
3.03663
2.37729
2.38793
5.40625
26.2961
170.316
304.834
841.156
980.917
1029.37
925.803
191.696
6.26653
4.43915
4.46652
9.8562
8.93028
5.07897
3.75255
2.50922
1.82612
1.71333
2.84878
13.1969
48.9958
45.4445
424.895
1125.31
1200.44
945.747
42.2932
5.61643
2.65095
8.59013
12.4012
14.1328
15.3516
8.04605
3.92386
2.14611
2.10599
3.01258
9.40842
65.695
44.9408
120.888
937.475
1313.69
1128.09
44.9207
5.17802
1.25785
3.10722
4.38691
6.4368
7.25983
8.95101
9.78493
4.13406
2.81882
3.40463
4.18831
68.7047
47.7025
49.9102
327.45
1313.03
1388.15
315.844
5.68777
0.389057
-1.11091
-1.35626
-1.63344
-1.08608
0.700792
9.70076
13.7961
10.9371
3.81999
2.93943
71.1985
74.505
65.5855
75.2964
544.773
1474.74
1302.36
104.961
2.13044
0.147956
-1.02024
-1.74915
-1.34282
0.235715
3.0589
22.6209
21.9386
4.40635
3.56368
74.4884
501.597
497.953
404.439
387.779
1012.55
1444.09
475.451
8.94688
3.43313
0.744441
0.0663079
0.34429
1.46016
10.3808
76.7111
28.436
4.17425
3.93648
73.4676
541.922
981.753
1069.52
1064.59
1119.96
1393.66
412.244
28.647
8.56196
2.2415
2.97074
3.88906
4.55907
233.76
262.12
30.8785
4.60556
4.7237
85.5299
6.11141
6.59074
426.651
1045.23
1177.4
1069.93
497.998
504.687
702.016
572.024
208.709
68.3955
256.189
452.095
311.967
24.3675
5.40745
5.38716
92.5188
6.01773
6.18343
6.17465
81.4469
900.02
1157.43
1267.98
1277.28
1229.71
1185.4
1173.36
1190.33
1093.62
510.245
6.20421
5.47232
5.66537
5.44767
97.5128
6.03394
6.15716
6.19588
6.0974
21.2756
509.938
838.722
742.683
715.485
807.828
682.202
268.043
5.55622
5.4259
5.64349
5.50238
5.57432
5.48065
102.589
5.95016
6.09359
6.15104
6.14817
6.13318
6.14321
27.6849
8.93756
5.53821
5.47844
5.45789
5.44269
5.44888
5.43169
5.56253
5.53934
5.5811
5.50377
107.711
5.85224
5.9994
6.07035
6.07504
6.04407
6.00014
5.86174
5.70521
5.59458
5.5355
5.50424
5.49484
5.52811
5.52978
5.56963
5.55506
5.58007
5.51006
112.142
5.76558
5.9006
5.96965
5.98162
5.96364
5.91841
5.82975
5.72551
5.64636
5.59341
5.56551
5.55373
5.5551
5.55632
5.58057
5.56716
5.59963
5.50685
100.36
5.70664
5.8214
5.88128
5.89808
5.88814
5.85546
5.80031
5.73335
5.6733
5.6286
5.59975
5.58467
5.5836
5.5866
5.60189
5.58367
6.05719
5.508
14.7769
5.66747
5.7598
5.81114
5.8309
5.82839
5.80819
5.77253
5.72744
5.68412
5.6494
5.62543
5.61165
5.60858
5.60966
5.62512
5.61259
6.25159
5.60613
5.47258
5.63512
5.71072
5.75696
5.77902
5.78271
5.77194
5.74959
5.72004
5.68966
5.66328
5.64352
5.6314
5.62916
5.63294
5.64823
5.64955
6.32622
5.72453
5.61934
5.61067
5.67416
5.71614
5.73929
5.74732
5.74344
5.73043
5.71155
5.69075
5.67134
5.6556
5.64546
5.64463
5.65197
5.6708
5.68622
6.26493
5.78277
5.73387
5.59574
5.64914
5.68659
5.70949
5.72025
5.7213
5.71495
5.70361
5.68982
5.67551
5.66226
5.65278
5.65267
5.66327
5.68666
5.71588
5.74858
5.81147
5.80498
5.5878
5.63294
5.66619
5.68819
5.70047
5.70483
5.70306
5.69689
5.68785
5.67651
5.66326
5.65171
5.65019
5.66251
5.68996
5.73029
5.77923
5.85608
5.84419
5.58581
5.62403
5.65337
5.674
5.68689
5.6933
5.69455
5.69177
5.6856
5.67495
5.65973
5.642
5.63548
5.64757
5.67724
5.72126
5.76902
5.88965
5.89238
5.58832
5.62068
5.64641
5.66544
5.67833
5.68593
5.6891
5.68849
5.6837
5.67334
5.65029
5.62429
5.61114
5.62273
5.65165
5.69227
5.72994
7.26464
6.94452
5.59391
5.62131
5.64382
5.66119
5.67372
5.68194
5.6864
5.6873
5.68469
5.66997
5.63824
5.60181
5.58603
5.59606
5.61502
5.64653
5.79921
8.06691
7.52981
5.60163
5.62483
5.64444
5.66015
5.6721
5.68061
5.68605
5.68844
5.68828
5.67026
5.63229
5.59046
5.57468
5.58238
5.59617
5.6152
5.90018
8.02432
5.66088
5.61067
5.63028
5.64729
5.66137
5.67258
5.68115
5.68743
5.69201
5.69374
5.67869
5.64443
5.6018
5.59226
5.60161
5.60967
5.64784
5.83823
7.62493
5.67322
5.62044
5.63697
5.65162
5.66411
5.67445
5.68286
5.68973
5.69583
5.70103
5.69089
5.66669
5.64006
5.63681
5.65231
5.80209
5.87686
5.75981
5.55944
5.69299
5.63052
5.64439
5.65692
5.66788
5.67726
5.68525
5.69225
5.69857
5.70532
5.7058
5.70239
5.6833
5.6874
5.72603
5.85796
5.81868
5.68266
5.67941
5.74982
5.64066
5.65224
5.66289
5.6724
5.68076
5.6881
5.69474
5.70098
5.70684
5.71317
5.76186
5.79087
5.78042
5.77582
5.80242
5.73568
5.73529
5.75922
5.81036
5.65071
5.66033
5.66933
5.67751
5.68483
5.69138
5.69735
5.70292
5.70815
5.71302
5.76233
5.84535
5.8527
5.86403
5.87087
5.7824
5.76227
5.79173
5.83131
5.66057
5.66853
5.67607
5.68302
5.68934
5.69503
5.70024
5.70509
5.70951
5.7135
5.71671
5.78336
5.85077
5.82922
5.77232
5.75746
5.77058
5.79592
5.82575
5.67013
5.67666
5.68291
5.6887
5.69401
5.69883
5.70328
5.7075
5.71136
5.71484
5.71837
5.72173
5.72743
5.73613
5.74654
5.75697
5.7693
5.78773
5.80845
5.67925
5.68451
5.68955
5.69424
5.69855
5.70248
5.70615
5.70973
5.71305
5.71616
5.71979
5.72397
5.72952
5.7366
5.74496
5.75375
5.76282
5.77517
5.78842
5.68777
5.69188
5.69579
5.69942
5.70274
5.70575
5.70862
5.71145
5.71412
5.71678
5.72005
5.72392
5.72876
5.73433
5.74077
5.74763
5.75397
5.76188
5.76968
5.69559
5.69867
5.70154
5.70416
5.70655
5.70867
5.71072
5.71275
5.7147
5.71677
5.71937
5.72242
5.72621
5.7303
5.73499
5.73986
5.74404
5.7489
5.75317
5.70272
5.70488
5.70682
5.70853
5.71003
5.71132
5.71257
5.71381
5.71499
5.71632
5.71802
5.72001
5.72252
5.72508
5.72808
5.73106
5.73358
5.73636
5.73857
5.70925
5.71059
5.71169
5.71256
5.71324
5.71375
5.71422
5.71465
5.71499
5.71539
5.71602
5.71683
5.71794
5.71904
5.72046
5.7218
5.72306
5.72441
5.72552
5.71527
5.71589
5.71623
5.71632
5.71623
5.71598
5.71563
5.71516
5.71456
5.71395
5.71344
5.71304
5.71279
5.71254
5.71253
5.71251
5.71269
5.713
5.71342
5.72092
5.72089
5.72052
5.71988
5.719
5.71792
5.71666
5.71522
5.71363
5.71198
5.71034
5.70872
5.70713
5.70556
5.70418
5.70288
5.70198
5.70136
5.70121
5.72623
5.7256
5.72456
5.72317
5.72146
5.71948
5.71725
5.7148
5.71219
5.70948
5.70667
5.70375
5.70076
5.69772
5.69488
5.69213
5.69005
5.6884
5.68776
)
;

boundaryField
{
    leftWall
    {
        type            fixedFluxPressure;
        gradient        uniform 0;
        value           nonuniform List<scalar> 
50
(
1333.89
1337.27
1338.5
1337.96
1336.93
1336.7
1338.2
1343.18
1354.1
1247.38
876.812
721.088
592.378
354.006
146.03
49.0845
7.60783
5.9642
4.77684
5.11482
4.90288
4.66903
4.29367
4.06252
4.12153
4.45704
4.9288
5.34008
5.5891
5.7085
5.76428
5.7875
5.79467
5.79426
5.78973
5.78312
5.77584
5.76867
5.76205
5.75615
5.75106
5.74673
5.74312
5.74011
5.73762
5.73555
5.7338
5.73226
5.73098
5.72925
)
;
    }
    rightWall
    {
        type            fixedFluxPressure;
        gradient        uniform 0;
        value           nonuniform List<scalar> 
50
(
621.632
621.67
623.781
616.793
621.685
665.564
683.609
676.195
651.39
781.983
818.59
170.316
48.9958
65.695
68.7047
71.1985
74.4884
73.4676
85.5299
92.5188
97.5128
102.589
107.711
112.142
100.36
14.7769
5.47258
5.61934
5.73387
5.80498
5.84419
5.89238
6.94452
7.52981
5.66088
5.67322
5.69299
5.74982
5.81036
5.83131
5.82575
5.80845
5.78842
5.76968
5.75317
5.73857
5.72552
5.71342
5.70121
5.68776
)
;
    }
    lowerWall
    {
        type            fixedFluxPressure;
        gradient        uniform 0;
        value           nonuniform List<scalar> 
62
(
1333.89
1318.07
1288.18
1247.98
1204.24
1160.17
1115.77
1069.96
1023.3
977.196
933.852
896.506
867.965
849.402
839.695
834.518
832.514
834.336
837.78
846.953
858.343
865.362
865.899
865.899
863.944
861.277
858.266
854.969
851.143
845.628
839.599
844.655
858.323
878.737
874.571
914.179
920.974
910.114
886.399
865.524
853.648
857.367
872.135
914.179
836.442
775.292
784.42
791.402
691.16
609.427
562.144
506.533
455.838
424.17
445.716
507.423
565.043
569.434
556.205
568.206
594.502
621.632
)
;
    }
    atmosphere
    {
        type            prghTotalPressure;
        rho             rho;
        psi             none;
        gamma           1;
        p0              uniform 0;
        value           nonuniform List<scalar> 
46
(
5.72904
5.72904
5.72904
5.72904
5.72904
5.72904
5.72904
5.72904
5.72904
5.72904
5.72904
5.72904
5.72904
5.72904
5.72904
5.72904
5.72904
5.72904
5.72904
5.72904
5.72904
5.72904
5.72904
5.72904
5.72904
5.72904
5.72899
5.7287
5.7278
5.72639
5.7246
5.72246
5.72004
5.71734
5.71435
5.7112
5.70792
5.70448
5.70086
5.69709
5.69314
5.6895
5.68575
5.68303
5.68064
5.67989
)
;
        rho             rho;
    }
    defaultFaces
    {
        type            empty;
    }
}


// ************************************************************************* //
