/*--------------------------------*- C++ -*----------------------------------*\
  =========                 |
  \\      /  F ield         | OpenFOAM: The Open Source CFD Toolbox
   \\    /   O peration     | Website:  https://openfoam.org
    \\  /    A nd           | Version:  13
     \\/     M anipulation  |
\*---------------------------------------------------------------------------*/
FoamFile
{
    format      ascii;
    class       surfaceScalarField;
    location    "0.85";
    object      phi;
}
// * * * * * * * * * * * * * * * * * * * * * * * * * * * * * * * * * * * * * //

dimensions      [0 3 -1 0 0 0 0];

internalField   nonuniform List<scalar> 
4432
(
-4.78855e-06
4.78855e-06
-1.06296e-05
5.84101e-06
-1.71093e-05
6.47974e-06
-2.35192e-05
6.40991e-06
-2.73505e-05
3.8313e-06
-2.70619e-05
-2.88568e-07
-2.45297e-05
-2.53217e-06
-2.17492e-05
-2.7806e-06
-1.90986e-05
-2.65056e-06
-1.64756e-05
-2.62299e-06
-1.4194e-05
-2.28155e-06
-1.27104e-05
-1.48366e-06
-1.21196e-05
-5.90772e-07
-1.18925e-05
-2.27155e-07
-1.13005e-05
-5.91951e-07
-1.16419e-05
3.41344e-07
-1.58646e-05
4.22279e-06
-2.24516e-05
6.58699e-06
-2.53365e-05
2.88486e-06
-2.15395e-05
-3.797e-06
-1.42784e-05
-7.26106e-06
-6.38752e-06
-7.89089e-06
-6.38752e-06
-9.14834e-06
1.39369e-05
-1.77629e-05
1.44556e-05
-2.4992e-05
1.37088e-05
-2.95882e-05
1.10061e-05
-3.04105e-05
4.6536e-06
-2.84477e-05
-2.25135e-06
-2.5337e-05
-5.64285e-06
-2.22602e-05
-5.85738e-06
-1.93826e-05
-5.5282e-06
-1.64602e-05
-5.54541e-06
-1.3657e-05
-5.08473e-06
-1.15033e-05
-3.63735e-06
-1.05407e-05
-1.55334e-06
-1.11848e-05
4.16918e-07
-1.36597e-05
1.88296e-06
-1.74518e-05
4.13343e-06
-2.10056e-05
7.77659e-06
-2.18075e-05
7.38889e-06
-1.81524e-05
-7.70287e-07
-1.26902e-05
-9.25914e-06
-7.86846e-06
-1.20828e-05
-3.36986e-06
-1.23895e-05
-9.75738e-06
-9.71459e-06
2.36515e-05
-1.80859e-05
2.2827e-05
-2.4833e-05
2.04559e-05
-2.9439e-05
1.5612e-05
-3.10425e-05
6.25714e-06
-2.9573e-05
-3.72086e-06
-2.65826e-05
-8.63321e-06
-2.34267e-05
-9.01333e-06
-2.02672e-05
-8.6877e-06
-1.69182e-05
-8.89432e-06
-1.35623e-05
-8.44067e-06
-1.06568e-05
-6.54284e-06
-8.60361e-06
-3.60655e-06
-7.75843e-06
-4.2828e-07
-8.634e-06
2.75854e-06
-1.07667e-05
6.26611e-06
-1.17458e-05
8.75567e-06
-9.82205e-06
5.46516e-06
-5.99144e-06
-4.6009e-06
-2.30206e-06
-1.29485e-05
-4.85054e-07
-1.38998e-05
3.03705e-07
-1.31783e-05
-9.45368e-06
-8.88347e-06
3.25349e-05
-1.66047e-05
3.05481e-05
-2.31748e-05
2.70261e-05
-2.80737e-05
2.05109e-05
-3.01332e-05
8.31663e-06
-2.93598e-05
-4.49425e-06
-2.72896e-05
-1.07034e-05
-2.48026e-05
-1.15003e-05
-2.16831e-05
-1.18072e-05
-1.80053e-05
-1.25721e-05
-1.42907e-05
-1.21554e-05
-1.11428e-05
-9.69074e-06
-8.84027e-06
-5.90902e-06
-7.21801e-06
-2.05055e-06
-5.96729e-06
1.50782e-06
-4.69441e-06
4.99323e-06
-2.65906e-06
6.72031e-06
-1.52332e-07
2.95844e-06
1.88105e-06
-6.63428e-06
3.05767e-06
-1.41251e-05
3.0792e-06
-1.39213e-05
2.03864e-06
-1.21377e-05
-7.41504e-06
-7.6421e-06
4.0177e-05
-1.45663e-05
3.74723e-05
-2.04876e-05
3.29475e-05
-2.48279e-05
2.48511e-05
-2.68468e-05
1.03356e-05
-2.71673e-05
-4.17384e-06
-2.69806e-05
-1.089e-05
-2.59923e-05
-1.24886e-05
-2.33127e-05
-1.44868e-05
-1.9232e-05
-1.66527e-05
-1.48729e-05
-1.65146e-05
-1.13293e-05
-1.32343e-05
-8.99947e-06
-8.23886e-06
-7.49943e-06
-3.55061e-06
-6.05463e-06
6.30372e-08
-3.91738e-06
2.85599e-06
-1.00123e-06
3.80416e-06
1.45501e-06
5.02195e-07
2.40563e-06
-7.58489e-06
3.05753e-06
-1.4777e-05
3.11929e-06
-1.39831e-05
2.17071e-06
-1.11891e-05
-5.24433e-06
-6.10759e-06
4.62846e-05
-1.19149e-05
4.32797e-05
-1.66619e-05
3.76944e-05
-2.00033e-05
2.81925e-05
-2.19884e-05
1.23207e-05
-2.37496e-05
-2.41265e-06
-2.6089e-05
-8.55061e-06
-2.70765e-05
-1.15012e-05
-2.49016e-05
-1.66617e-05
-2.00351e-05
-2.15192e-05
-1.44973e-05
-2.20524e-05
-1.02905e-05
-1.74411e-05
-8.01465e-06
-1.05147e-05
-6.95002e-06
-4.61524e-06
-6.02941e-06
-8.57576e-07
-4.62977e-06
1.45635e-06
-2.70925e-06
1.88364e-06
-9.58692e-07
-1.24836e-06
4.10758e-07
-8.95434e-06
2.14697e-06
-1.65133e-05
3.27063e-06
-1.51067e-05
2.52305e-06
-1.04416e-05
-2.72128e-06
-4.36202e-06
5.06467e-05
-9.14162e-06
4.80593e-05
-1.2683e-05
4.12358e-05
-1.47262e-05
3.02358e-05
-1.646e-05
1.40544e-05
-2.01696e-05
1.29696e-06
-2.55901e-05
-3.13009e-06
-2.81836e-05
-8.90766e-06
-2.55544e-05
-1.92909e-05
-1.89701e-05
-2.81036e-05
-1.17612e-05
-2.92613e-05
-6.79712e-06
-2.24052e-05
-4.75974e-06
-1.2552e-05
-4.55278e-06
-4.82222e-06
-4.51038e-06
-9.00003e-07
-3.91513e-06
8.61099e-07
-3.00059e-06
9.69115e-07
-1.89209e-06
-2.35685e-06
3.69839e-07
-1.12163e-05
3.50465e-06
-1.96481e-05
5.439e-06
-1.70411e-05
3.9601e-06
-8.96266e-06
1.23882e-06
-2.37279e-06
5.30194e-05
-5.38742e-06
5.10739e-05
-6.59996e-06
4.24483e-05
-6.43298e-06
3.00688e-05
-8.97656e-06
1.6598e-05
-1.72945e-05
9.61491e-06
-2.60095e-05
5.58496e-06
-2.91162e-05
-5.80099e-06
-2.53852e-05
-2.3022e-05
-1.77122e-05
-3.57766e-05
-9.80082e-06
-3.71726e-05
-4.26523e-06
-2.79408e-05
-1.78372e-06
-1.50335e-05
-1.54679e-06
-5.05916e-06
-1.96093e-06
-4.85869e-07
-2.0476e-06
9.47775e-07
-1.98705e-06
9.0857e-07
-9.25952e-07
-3.41795e-06
2.01976e-06
-1.4162e-05
6.75867e-06
-2.4387e-05
9.16242e-06
-1.94448e-05
5.61571e-06
-5.41594e-06
6.85453e-06
-1.30924e-05
1.30924e-05
-3.69433e-05
2.38508e-05
-4.62097e-05
9.26642e-06
-3.30143e-05
-1.31954e-05
-8.50971e-06
-2.45046e-05
4.99598e-06
-1.35057e-05
-4.36323e-06
9.3592e-06
-2.81826e-05
2.38194e-05
-2.91241e-05
9.41498e-07
-7.72099e-06
-2.14031e-05
3.6118e-06
-1.13328e-05
7.11598e-06
-3.50418e-06
1.18102e-05
-4.69421e-06
2.1953e-05
-1.01428e-05
2.94482e-05
-7.49513e-06
2.23835e-05
7.06468e-06
1.65799e-06
2.07255e-05
-7.32231e-06
8.9803e-06
-7.32231e-06
-2.56382e-05
3.87306e-05
-4.34062e-05
4.16188e-05
-4.18828e-05
7.74302e-06
-2.78404e-05
-2.72378e-05
-1.26131e-05
-3.97319e-05
-1.95098e-05
-6.60904e-06
-4.05316e-05
3.0381e-05
-4.15745e-05
2.48622e-05
-2.42079e-05
-1.6425e-05
-1.32643e-05
-3.23468e-05
-9.2967e-06
-1.53003e-05
-4.56772e-06
-8.23316e-06
2.89949e-06
-1.21614e-05
1.62375e-05
-2.34809e-05
3.11432e-05
-2.24008e-05
3.74339e-05
7.73958e-07
2.53155e-05
3.28439e-05
6.14303e-06
2.81527e-05
-1.17929e-06
-2.31007e-05
6.18313e-05
-3.37383e-05
5.22564e-05
-3.31555e-05
7.16023e-06
-2.58064e-05
-3.45869e-05
-2.30404e-05
-4.24979e-05
-3.95959e-05
9.94653e-06
-5.15182e-05
4.23033e-05
-4.23315e-05
1.56755e-05
-3.91686e-05
-1.95879e-05
-4.30185e-05
-2.84969e-05
-3.7619e-05
-2.06998e-05
-3.32533e-05
-1.25989e-05
-2.6832e-05
-1.85827e-05
-1.23725e-05
-3.79403e-05
7.97839e-06
-4.27517e-05
2.42408e-05
-1.54884e-05
2.74533e-05
2.96314e-05
1.43325e-05
4.12735e-05
1.31533e-05
-1.61977e-05
7.8029e-05
-2.33702e-05
5.9429e-05
-2.47155e-05
8.50551e-06
-2.15551e-05
-3.77473e-05
-2.80784e-05
-3.59747e-05
-4.51782e-05
2.70464e-05
-5.20356e-05
4.91607e-05
-5.37e-05
1.73399e-05
-6.83868e-05
-4.90111e-06
-8.09857e-05
-1.5898e-05
-8.43571e-05
-1.73284e-05
-8.31752e-05
-1.37808e-05
-7.74945e-05
-2.42634e-05
-5.89487e-05
-5.64862e-05
-2.63318e-05
-7.53686e-05
3.90884e-06
-4.57291e-05
1.7788e-05
1.57523e-05
1.11674e-05
4.7894e-05
2.43207e-05
-8.9634e-06
8.69924e-05
-1.30245e-05
6.34901e-05
-1.35301e-05
9.01112e-06
-1.42293e-05
-3.70481e-05
-2.82e-05
-2.2004e-05
-4.53981e-05
4.42445e-05
-5.48779e-05
5.86406e-05
-7.19345e-05
3.43966e-05
-9.97086e-05
2.2873e-05
-0.000127258
1.16515e-05
-0.000147507
2.92071e-06
-0.000151055
-1.02328e-05
-0.000133248
-4.20711e-05
-0.000102729
-8.70044e-05
-6.66893e-05
-0.000111409
-2.61659e-05
-8.62525e-05
2.86702e-06
-1.32807e-05
3.52945e-06
4.72316e-05
2.78501e-05
-1.89175e-06
8.88841e-05
-2.07879e-06
6.36771e-05
-7.09842e-07
7.64217e-06
-6.71159e-06
-3.10463e-05
-2.72564e-05
-1.45928e-06
-4.55623e-05
6.25504e-05
-6.06064e-05
7.36848e-05
-8.93417e-05
6.31319e-05
-0.000116176
4.97075e-05
-0.000137406
3.28812e-05
-0.000152873
1.83878e-05
-0.000153511
-9.59488e-06
-0.000131949
-6.36328e-05
-0.000104447
-0.000114506
-8.29393e-05
-0.000132916
-5.39076e-05
-0.000115284
-1.8041e-05
-4.91473e-05
-1.04075e-06
3.02313e-05
2.68094e-05
6.60971e-06
8.22744e-05
9.89883e-06
6.0388e-05
1.04796e-05
7.06141e-06
-1.97229e-06
-1.85944e-05
-2.74611e-05
2.40295e-05
-4.71433e-05
8.22326e-05
-6.80503e-05
9.45918e-05
-9.90022e-05
9.40838e-05
-0.000116791
6.74964e-05
-0.00012295
3.90405e-05
-0.00012474
2.01772e-05
-0.000115401
-1.89333e-05
-9.69445e-05
-8.20898e-05
-8.52512e-05
-0.0001262
-7.72993e-05
-0.000140868
-6.32e-05
-0.000129383
-2.93706e-05
-8.29767e-05
-8.5374e-07
1.71447e-06
2.59557e-05
1.2358e-05
6.99164e-05
1.95719e-05
5.31741e-05
2.09222e-05
5.7111e-06
2.08757e-06
2.40163e-07
-2.81884e-05
5.43055e-05
-5.24014e-05
0.000106446
-8.01817e-05
0.000122372
-0.000105047
0.000118949
-0.000108681
7.11303e-05
-0.000101294
3.16539e-05
-9.32634e-05
1.21463e-05
-8.43106e-05
-2.78861e-05
-7.51544e-05
-9.12459e-05
-7.22123e-05
-0.000129142
-7.01221e-05
-0.000142958
-6.32515e-05
-0.000136254
-4.48646e-05
-0.000101364
-9.63228e-06
-3.35179e-05
1.63234e-05
4.11923e-06
4.89002e-05
4.23136e-07
5.477e-05
-4.8851e-06
4.77565e-05
-1.60816e-05
4.12653e-05
-3.55768e-05
3.60932e-05
-5.70477e-05
3.10858e-05
-7.0107e-05
1.86443e-05
-7.62393e-05
3.3138e-07
-7.28846e-05
-2.63767e-05
-6.22983e-05
-4.63628e-05
-4.73459e-05
-5.21251e-05
-3.24509e-05
-4.28358e-05
-2.02897e-05
-2.71948e-05
-1.27129e-05
-1.26359e-05
-9.25821e-06
-3.94055e-06
-7.85175e-06
-4.58675e-07
-8.1802e-06
1.23702e-06
-1.08287e-05
-7.69499e-07
-7.98999e-06
-1.70006e-05
1.12119e-05
-4.35889e-05
2.93815e-05
-3.76144e-05
1.99327e-05
4.03287e-06
1.59588e-05
1.08284e-05
-9.79938e-06
5.86996e-05
-2.88148e-05
7.37854e-05
-4.84783e-05
6.742e-05
-6.18448e-05
5.46319e-05
-7.31069e-05
4.73554e-05
-8.95046e-05
4.74834e-05
-0.000110968
4.01079e-05
-0.000132038
2.14009e-05
-0.000144323
-1.40916e-05
-0.00014592
-4.47658e-05
-0.00013301
-6.50346e-05
-0.000111225
-6.46209e-05
-8.52106e-05
-5.32096e-05
-6.445e-05
-3.33965e-05
-5.12364e-05
-1.71541e-05
-5.54751e-05
3.78004e-06
-8.04405e-05
2.62024e-05
-0.000107646
2.64356e-05
-9.40552e-05
-3.05909e-05
-3.51215e-05
-0.000102523
2.49708e-05
-9.77067e-05
3.70821e-05
-8.07849e-06
3.01853e-05
2.28556e-05
-6.95222e-05
0.000128222
-0.000117098
0.000121361
-0.000151723
0.000102046
-0.000183764
8.66723e-05
-0.000207322
7.09139e-05
-0.000226286
6.64469e-05
-0.000252746
6.65677e-05
-0.000290056
5.87116e-05
-0.000316091
1.19427e-05
-0.000297971
-6.28853e-05
-0.000265866
-9.71393e-05
-0.000277773
-5.27146e-05
-0.000319207
-1.17751e-05
-0.000360598
7.99467e-06
-0.000367737
-1.00157e-05
-0.000339208
-2.47482e-05
-0.00030533
-7.67591e-06
-0.000272638
-6.25695e-06
-0.000200615
-0.000102614
-0.000110588
-0.00019255
-2.45913e-05
-0.000183703
1.14333e-05
-4.41031e-05
8.87592e-05
-4.71406e-05
-0.000186024
0.000314246
-0.000285853
0.00022119
-0.000321408
0.0001376
-0.000330305
9.55702e-05
-0.000337854
7.84627e-05
-0.0003504
7.89922e-05
-0.000394794
0.000110962
-0.000445456
0.000109374
-0.000422877
-1.06368e-05
-0.000368961
-0.0001168
-0.000333337
-0.000132764
-0.000296147
-8.99046e-05
-0.000266775
-4.11472e-05
-0.000256196
-2.58411e-06
-0.000256719
-9.49221e-06
-0.000258645
-2.28224e-05
-0.000236662
-2.96591e-05
-0.000195102
-4.78167e-05
-0.000137744
-0.000159972
-0.00013297
-0.000197323
-0.000122138
-0.000194536
-9.66832e-05
-6.95578e-05
0.000171233
-0.000179157
-0.000241636
0.000555883
-0.000330684
0.000310237
-0.000384046
0.000190962
-0.000397313
0.000108838
-0.000404861
8.60104e-05
-0.000435997
0.000110128
-0.000462044
0.000137009
-0.000426528
7.38577e-05
-0.00039332
-4.38446e-05
-0.000367461
-0.00014266
-0.000344449
-0.000155775
-0.000304435
-0.000129919
-0.000246136
-9.94465e-05
-0.000178452
-7.02674e-05
-0.000129468
-5.84759e-05
-0.000105438
-4.6853e-05
-8.78709e-05
-4.72259e-05
-8.28263e-05
-5.28613e-05
-0.000102617
-0.000140181
-0.000130699
-0.000169241
-0.00015006
-0.000175175
-0.000124156
-9.54615e-05
0.000197809
-0.000150733
-0.000200149
0.000756031
-0.000290252
0.000400341
-0.000339542
0.000240252
-0.000387011
0.000156306
-0.000420737
0.000119736
-0.000430469
0.000119859
-0.000404309
0.00011085
-0.000374631
4.41802e-05
-0.00035997
-5.85053e-05
-0.000364095
-0.000138536
-0.000350477
-0.000169393
-0.000323101
-0.000157295
-0.000281857
-0.000140691
-0.00023175
-0.000120375
-0.000186941
-0.000103285
-0.000144078
-8.97155e-05
-0.000112012
-7.92925e-05
-9.36661e-05
-7.12068e-05
-0.000115836
-0.000118011
-0.000138871
-0.000146205
-0.000159746
-0.0001543
-0.000153166
-0.000102041
0.000128764
-8.41208e-05
-0.000133177
0.000889209
-0.000183741
0.000450905
-0.000266595
0.000323107
-0.00032805
0.000217761
-0.000362095
0.000153781
-0.000362415
0.000120179
-0.000335722
8.41578e-05
-0.000318497
2.69551e-05
-0.000329742
-4.72608e-05
-0.000350372
-0.000117905
-0.000362775
-0.000156991
-0.000352533
-0.000167537
-0.000318848
-0.000174376
-0.000279759
-0.000159463
-0.000239507
-0.000143537
-0.000202618
-0.000126605
-0.000182085
-9.98255e-05
-0.000178521
-7.47703e-05
-0.00019491
-0.000101623
-0.000190977
-0.000150139
-0.000196299
-0.000148978
-0.000199241
-9.90998e-05
4.40395e-05
-0.000114516
-0.000113163
0.00100237
-0.000157514
0.000495255
-0.000209352
0.000374944
-0.000251547
0.000259956
-0.000264956
0.00016719
-0.000260439
0.000115661
-0.000251125
7.48443e-05
-0.000254296
3.01255e-05
-0.00028081
-2.07466e-05
-0.00032466
-7.40555e-05
-0.000365907
-0.000115744
-0.000381951
-0.000151492
-0.00037895
-0.000177377
-0.000355597
-0.000182816
-0.00032026
-0.000178873
-0.000296854
-0.00015001
-0.000310338
-8.63422e-05
-0.000346883
-3.82255e-05
-0.000323182
-0.000125324
-0.000268607
-0.000204713
-0.000237889
-0.000179696
-0.000231276
-0.000105713
-2.63401e-05
-0.000160896
-7.81183e-05
0.00108049
-0.00018472
0.000601857
-0.000200567
0.000390791
-0.000201334
0.000260723
-0.000183638
0.000149494
-0.000158008
9.00314e-05
-0.000138803
5.56393e-05
-0.00013947
3.0793e-05
-0.000167205
6.98762e-06
-0.00021972
-2.15397e-05
-0.000282661
-5.28031e-05
-0.000344366
-8.9788e-05
-0.000400222
-0.000121521
-0.000444394
-0.000138645
-0.000481697
-0.00014157
-0.000509248
-0.000122459
-0.000502836
-9.2754e-05
-0.000431284
-0.000109778
-0.000364428
-0.00019218
-0.000320735
-0.000248406
-0.00028533
-0.000215101
-0.000251107
-0.000139937
-6.28374e-05
-0.000214609
-1.26939e-05
0.00109318
-0.000180219
0.000769382
-0.000205732
0.000416304
-0.000190692
0.000245683
-0.000161621
0.000120423
-0.000123456
5.18667e-05
-8.57989e-05
1.79819e-05
-6.09154e-05
5.90964e-06
-5.81984e-05
4.27074e-06
-8.28843e-05
3.14628e-06
-0.000132104
-3.58413e-06
-0.000198537
-2.33547e-05
-0.000270058
-4.99995e-05
-0.000336226
-7.24775e-05
-0.000392114
-8.5682e-05
-0.000424789
-8.97848e-05
-0.000424267
-9.32757e-05
-0.000407914
-0.000126131
-0.000403543
-0.000196551
-0.000390921
-0.000261028
-0.000341756
-0.000264265
-0.000290162
-0.000191532
-0.000114358
-0.000238641
8.76805e-05
0.0010055
-7.72908e-05
0.000934353
-0.000176591
0.000515604
-0.000178697
0.000247789
-0.000152703
9.44289e-05
-0.000117923
1.70871e-05
-7.97649e-05
-2.01766e-05
-4.16294e-05
-3.22255e-05
-1.43747e-05
-2.29839e-05
-5.8822e-06
-5.34637e-06
-1.8801e-05
9.33448e-06
-5.57078e-05
1.3552e-05
-0.000113181
7.47336e-06
-0.00017691
-8.74804e-06
-0.0002319
-3.06925e-05
-0.000273648
-4.80362e-05
-0.000299449
-6.74748e-05
-0.000318341
-0.000107239
-0.000347102
-0.00016779
-0.000386509
-0.000221621
-0.000405753
-0.000245022
-0.000367972
-0.000229312
-0.000182219
-0.000300112
0.000176034
0.00082947
0.000107128
0.00100326
-4.45109e-05
0.000667243
-0.000107162
0.00031044
-0.000107476
9.47437e-05
-8.72942e-05
-3.09518e-06
-5.91094e-05
-4.83614e-05
-2.73194e-05
-6.40156e-05
4.03454e-06
-5.43379e-05
2.74775e-05
-2.87895e-05
3.76191e-05
-8.07114e-07
3.12597e-05
1.99114e-05
7.70149e-06
3.10314e-05
-3.15626e-05
3.05159e-05
-7.68454e-05
1.45904e-05
-0.000116428
-8.4539e-06
-0.000148784
-3.51186e-05
-0.000179833
-7.61903e-05
-0.000214123
-0.000133499
-0.000255357
-0.000180387
-0.000295245
-0.000205133
-0.000314306
-0.000210252
-0.000205161
-0.000291363
0.000229927
0.000599543
0.000265919
0.000967268
0.000151688
0.000781474
4.09365e-05
0.000421192
-9.56229e-06
0.000145243
-1.9305e-05
6.64768e-06
-1.12524e-05
-5.6414e-05
6.47971e-06
-8.17477e-05
2.79784e-05
-7.58368e-05
4.82859e-05
-4.90971e-05
6.47181e-05
-1.72392e-05
7.44103e-05
1.02191e-05
7.51411e-05
3.03004e-05
6.41088e-05
4.15482e-05
3.9005e-05
3.96942e-05
1.07577e-05
1.97935e-05
-1.17703e-05
-1.25906e-05
-3.61542e-05
-5.18065e-05
-7.7366e-05
-9.22874e-05
-0.000122742
-0.000135011
-0.000162581
-0.000165295
-0.000192591
-0.000180242
-0.000188745
-0.000209006
0.000223371
0.000376171
0.000344382
0.000846258
0.000320486
0.000805369
0.000222298
0.000519379
0.000133524
0.000234017
8.26247e-05
5.75472e-05
6.17267e-05
-3.55161e-05
5.95281e-05
-7.95492e-05
6.57872e-05
-8.20959e-05
7.43473e-05
-5.76571e-05
8.39633e-05
-2.68551e-05
9.47903e-05
-6.07944e-07
0.000104825
2.02661e-05
0.000111074
3.52988e-05
0.000108286
4.24821e-05
9.18789e-05
3.62007e-05
6.63676e-05
1.29208e-05
4.04368e-05
-2.58757e-05
1.41339e-05
-6.59843e-05
-2.0809e-05
-0.000100068
-5.87128e-05
-0.000127391
-8.78229e-05
-0.000151131
-0.000167112
-0.000109455
0.000171041
0.00020513
0.000337833
0.000679465
0.000388042
0.000755161
0.000342203
0.000565219
0.000259266
0.000316955
0.000189826
0.000126987
0.000147074
7.23591e-06
0.000123879
-5.63543e-05
0.000111982
-7.01991e-05
0.000106062
-5.17368e-05
0.000104676
-2.54689e-05
0.000108153
-4.08497e-06
0.000116209
1.22105e-05
0.00012674
2.47674e-05
0.000136013
3.32095e-05
0.000137212
3.50018e-05
0.000124096
2.60372e-05
9.59167e-05
2.30332e-06
6.52881e-05
-3.53557e-05
3.7447e-05
-7.22272e-05
1.19662e-05
-0.00010191
-1.38703e-05
-0.000125295
-0.000148804
-3.2179e-05
0.000104877
0.000100252
0.000269366
0.000514977
0.000366991
0.000657535
0.00037465
0.00055756
0.000326217
0.000365388
0.000267155
0.000186049
0.000219313
5.50781e-05
0.000182624
-1.96656e-05
0.000155527
-4.31015e-05
0.000136641
-3.28515e-05
0.000125255
-1.40825e-05
0.000120641
5.28873e-07
0.000122416
1.04358e-05
0.000129519
1.76637e-05
0.000140097
2.26319e-05
0.000150221
2.48786e-05
0.000153359
2.28989e-05
0.0001432
1.24626e-05
0.000117341
-9.49668e-06
8.78473e-05
-4.27335e-05
6.23835e-05
-7.64459e-05
4.19646e-05
-0.000104876
-0.000133177
2.63384e-05
4.4735e-05
5.55176e-05
0.000176614
0.000383098
0.000290704
0.000543446
0.000339541
0.000508723
0.000332931
0.000371998
0.000300241
0.00021874
0.0002605
9.48187e-05
0.000220757
2.00774e-05
0.000185067
-7.41188e-06
0.000158481
-6.26511e-06
0.000141351
3.04763e-06
0.00013171
1.01694e-05
0.000128225
1.39215e-05
0.000130144
1.57444e-05
0.000136633
1.61429e-05
0.00014633
1.51815e-05
0.000156408
1.28209e-05
0.000161635
7.23573e-06
0.000156308
-4.16916e-06
0.000139813
-2.62382e-05
0.000116914
-5.35478e-05
9.57489e-05
-8.37108e-05
-0.000114117
7.66883e-05
-1.43104e-06
5.69489e-05
9.21907e-05
0.000289476
0.000199986
0.00043565
0.000271891
0.000436818
0.000298948
0.000344941
0.000293098
0.00022459
0.000266689
0.000121227
0.000230378
5.63888e-05
0.00019494
2.80257e-05
0.000167771
2.0904e-05
0.000149897
2.09221e-05
0.000138974
2.10922e-05
0.000133084
1.98107e-05
0.000131414
1.74148e-05
0.000133425
1.41319e-05
0.000138618
9.98819e-06
0.000146393
5.04613e-06
0.000154601
-9.71354e-07
0.000160324
-9.89261e-06
0.00015809
-2.40042e-05
0.000148858
-4.43158e-05
0.000134515
-6.93679e-05
-9.39857e-05
0.000114384
-2.74058e-05
8.43546e-05
3.04633e-05
0.000231607
0.000121572
0.000344541
0.000200058
0.000358332
0.000245969
0.00029903
0.000258113
0.000212446
0.000244059
0.000135282
0.000216474
8.39742e-05
0.000188049
5.64503e-05
0.000165847
4.31056e-05
0.00015079
3.598e-05
0.000141063
3.0819e-05
0.000135019
2.58548e-05
0.000131847
2.05862e-05
0.000131071
1.49087e-05
0.000132299
8.75933e-06
0.000135315
2.03097e-06
0.000139875
-5.53191e-06
0.000144563
-1.45801e-05
0.000146876
-2.63178e-05
0.000144236
-4.1676e-05
0.000134937
-6.00688e-05
-7.79614e-05
0.000118913
-3.13272e-05
0.000115682
-9.38601e-07
0.000201219
6.86619e-05
0.000274941
0.000140678
0.000286316
0.000190412
0.000249297
0.000210475
0.000192382
0.000206385
0.000139372
0.000189951
0.000100408
0.000171622
7.47787e-05
0.000156553
5.81749e-05
0.000145649
4.68837e-05
0.000138102
3.83666e-05
0.000132956
3.10004e-05
0.000129588
2.39543e-05
0.000127591
1.6906e-05
0.000126634
9.71617e-06
0.000126439
2.22565e-06
0.000127006
-6.09867e-06
0.000127721
-1.52952e-05
0.000127346
-2.59422e-05
0.000123942
-3.82724e-05
0.000115864
-5.19908e-05
-6.49522e-05
0.000102855
-2.06608e-05
0.000136343
-7.88622e-06
0.000188444
4.22447e-05
0.00022481
9.99637e-05
0.000228597
0.000143206
0.000206054
0.000164456
0.000171132
0.000167755
0.000136073
0.000161472
0.000106692
0.000152322
8.39284e-05
0.00014368
6.68171e-05
0.000136645
5.39182e-05
0.000131277
4.37348e-05
0.000127258
3.50202e-05
0.000124226
2.69863e-05
0.000121895
1.92362e-05
0.00012005
1.15619e-05
0.000118498
3.77768e-06
0.000116891
-4.4919e-06
0.000115013
-1.34174e-05
0.000112098
-2.30271e-05
0.000107219
-3.33939e-05
9.92618e-05
-4.40332e-05
-5.35676e-05
8.78773e-05
-6.27559e-06
0.000142618
9.47047e-07
0.000181222
3.49907e-05
0.000190766
7.63816e-05
0.000187206
0.000109414
0.000173022
0.00012865
0.000151896
0.000136244
0.000128479
0.000136747
0.000106189
0.000133855
8.68209e-05
0.00012979
7.08817e-05
0.000125729
5.79791e-05
0.00012217
4.72941e-05
0.00011918
3.801e-05
0.000116634
2.95321e-05
0.000114379
2.14913e-05
0.000112286
1.36552e-05
0.000110214
5.849e-06
0.000107982
-2.25976e-06
0.000105094
-1.05287e-05
0.000101228
-1.91616e-05
9.58247e-05
-2.79906e-05
8.84372e-05
-3.66458e-05
-4.42611e-05
7.91305e-05
3.45827e-06
0.00013916
1.21369e-05
0.000172543
3.57616e-05
0.000167142
6.39699e-05
0.000158998
8.77963e-05
0.000149196
0.000103902
0.00013579
0.000112923
0.000119459
0.000116812
0.0001023
0.000117443
8.61895e-05
0.000116278
7.20469e-05
0.000114332
5.99244e-05
0.000112191
4.94356e-05
0.00011009
4.01107e-05
0.000108065
3.15568e-05
0.000106072
2.3484e-05
0.000104045
1.56823e-05
0.000101898
7.99666e-06
9.93531e-05
2.84923e-07
9.63359e-05
-7.5114e-06
9.24558e-05
-1.52815e-05
8.73972e-05
-2.2932e-05
8.10026e-05
-3.02513e-05
-3.66482e-05
7.33896e-05
7.13927e-06
0.000132021
1.8712e-05
0.000160971
3.67079e-05
0.000149146
5.64472e-05
0.000139259
7.37234e-05
0.00013192
8.67936e-05
0.00012272
9.55898e-05
0.000110662
0.000100756
9.71336e-05
0.000103185
8.37605e-05
0.000103787
7.14454e-05
0.000103313
6.03979e-05
0.000102272
5.04771e-05
0.000100939
4.14434e-05
9.94318e-05
3.30643e-05
9.77733e-05
2.51425e-05
9.59344e-05
1.75212e-05
9.38454e-05
1.00858e-05
9.13705e-05
2.75996e-06
8.83863e-05
-4.52722e-06
8.47127e-05
-1.16079e-05
8.02144e-05
-1.84338e-05
7.48085e-05
-2.48454e-05
-3.04901e-05
6.86503e-05
7.6878e-06
0.000124333
2.04118e-05
0.000148247
3.54006e-05
0.000134157
5.02341e-05
0.000124426
6.33518e-05
0.000118802
7.405e-05
0.000112022
8.20895e-05
0.000102623
8.7566e-05
9.16571e-05
9.08659e-05
8.04606e-05
9.25253e-05
6.97861e-05
9.30576e-05
5.98656e-05
9.28547e-05
5.06801e-05
9.21691e-05
4.2129e-05
9.11398e-05
3.40936e-05
8.98237e-05
2.64587e-05
8.82206e-05
1.91245e-05
8.62897e-05
1.20168e-05
8.39561e-05
5.0936e-06
8.11353e-05
-1.70639e-06
7.77746e-05
-8.24722e-06
7.37798e-05
-1.4439e-05
6.91534e-05
-2.02192e-05
-2.53427e-05
6.40059e-05
7.39289e-06
0.00011694
1.97078e-05
0.000135932
3.25801e-05
0.000121285
4.44319e-05
0.000112574
5.49311e-05
0.000108302
6.3919e-05
0.000103034
7.1159e-05
9.53831e-05
7.65431e-05
8.6273e-05
8.02112e-05
7.67925e-05
8.24712e-05
6.75261e-05
8.36626e-05
5.86743e-05
8.40704e-05
5.02722e-05
8.39002e-05
4.22993e-05
8.32817e-05
3.47121e-05
8.22839e-05
2.74567e-05
8.09286e-05
2.04799e-05
7.92055e-05
1.374e-05
7.70851e-05
7.21406e-06
7.44901e-05
8.88557e-07
7.14509e-05
-5.20802e-06
6.7937e-05
-1.09252e-05
6.39506e-05
-1.6233e-05
-2.09861e-05
5.95939e-05
6.96374e-06
0.000109977
1.82297e-05
0.000124666
2.93136e-05
0.000110201
3.91268e-05
0.000102761
4.7864e-05
9.95652e-05
5.55916e-05
9.53067e-05
6.2097e-05
8.88777e-05
6.72091e-05
8.11609e-05
7.09563e-05
7.30452e-05
7.35154e-05
6.49671e-05
7.51076e-05
5.70821e-05
7.59336e-05
4.94462e-05
7.61498e-05
4.20831e-05
7.58661e-05
3.49957e-05
7.51518e-05
2.81711e-05
7.40424e-05
2.15895e-05
7.25491e-05
1.52334e-05
7.06668e-05
9.09637e-06
6.83718e-05
3.18353e-06
6.56718e-05
-2.50815e-06
6.25946e-05
-7.84822e-06
5.91515e-05
-1.279e-05
-1.72613e-05
5.54266e-05
6.48465e-06
0.000103492
1.65703e-05
0.00011458
2.61153e-05
0.000100656
3.44092e-05
9.44665e-05
4.18639e-05
9.21106e-05
4.86102e-05
8.85605e-05
5.44529e-05
8.30349e-05
5.92131e-05
7.64005e-05
6.28735e-05
6.93848e-05
6.55363e-05
6.23043e-05
6.73451e-05
5.52734e-05
6.84378e-05
4.83536e-05
6.89298e-05
4.15911e-05
6.89103e-05
3.50153e-05
6.84428e-05
2.86388e-05
6.75685e-05
2.24638e-05
6.63112e-05
1.64908e-05
6.46828e-05
1.07248e-05
6.26873e-05
5.17898e-06
6.0318e-05
-1.3902e-07
5.76434e-05
-5.17379e-06
5.46755e-05
-9.82219e-06
-1.40627e-05
5.14769e-05
5.97545e-06
9.75163e-05
1.49159e-05
0.000105639
2.315e-05
9.24224e-05
3.02558e-05
8.73604e-05
3.67188e-05
8.56477e-05
4.26654e-05
8.26138e-05
4.79122e-05
7.7788e-05
5.22935e-05
7.20192e-05
5.57769e-05
6.59015e-05
5.84221e-05
5.96591e-05
6.03219e-05
5.33736e-05
6.157e-05
4.71054e-05
6.22505e-05
4.09108e-05
6.24333e-05
3.48325e-05
6.21741e-05
2.88981e-05
6.15139e-05
2.31241e-05
6.04821e-05
1.75226e-05
5.90997e-05
1.21071e-05
5.73839e-05
6.89472e-06
5.53384e-05
1.90638e-06
5.302e-05
-2.85542e-06
5.04563e-05
-7.2585e-06
-1.13074e-05
4.7701e-05
5.47152e-06
9.20447e-05
1.33496e-05
9.77612e-05
2.04668e-05
8.53052e-05
2.66108e-05
8.12163e-05
3.22703e-05
7.99883e-05
3.75424e-05
7.73416e-05
4.22527e-05
7.30777e-05
4.62555e-05
6.80165e-05
4.95164e-05
6.26407e-05
5.2071e-05
5.71045e-05
5.39789e-05
5.14657e-05
5.53031e-05
4.57811e-05
5.6104e-05
4.01099e-05
5.64358e-05
3.45007e-05
5.63453e-05
2.89886e-05
5.58706e-05
2.35987e-05
5.50425e-05
1.83507e-05
5.38861e-05
1.32635e-05
5.24233e-05
8.35744e-06
5.06715e-05
3.65819e-06
4.86716e-05
-8.55531e-07
4.64648e-05
-5.05167e-06
-8.93648e-06
4.40939e-05
5.00104e-06
8.70436e-05
1.1912e-05
9.08502e-05
1.80734e-05
7.91435e-05
2.34171e-05
7.58727e-05
2.84018e-05
7.50035e-05
3.30898e-05
7.26535e-05
3.73149e-05
6.88526e-05
4.0952e-05
6.43795e-05
4.39706e-05
5.96222e-05
4.63917e-05
5.46834e-05
4.82532e-05
4.96041e-05
4.95969e-05
4.44373e-05
5.04656e-05
3.92411e-05
5.0901e-05
3.40651e-05
5.09419e-05
2.89476e-05
5.06223e-05
2.39181e-05
4.99724e-05
1.90006e-05
4.9019e-05
1.42169e-05
4.77883e-05
9.58812e-06
4.63096e-05
5.13686e-06
4.458e-05
8.74143e-07
4.26949e-05
-3.16651e-06
-6.91983e-06
4.06782e-05
4.58057e-06
8.2463e-05
1.06162e-05
8.48145e-05
1.59536e-05
7.38059e-05
2.06176e-05
7.12088e-05
2.50225e-05
7.05985e-05
2.91956e-05
6.84804e-05
3.29799e-05
6.50683e-05
3.627e-05
6.10894e-05
3.90406e-05
5.68515e-05
4.13041e-05
5.24197e-05
4.30839e-05
4.78242e-05
4.44072e-05
4.31139e-05
4.53042e-05
3.83438e-05
4.58071e-05
3.35621e-05
4.59475e-05
2.88071e-05
4.57557e-05
2.41098e-05
4.526e-05
1.94962e-05
4.44873e-05
1.49895e-05
4.34645e-05
1.06109e-05
4.22194e-05
6.38198e-06
4.07745e-05
2.31915e-06
3.91879e-05
-1.57998e-06
-5.22313e-06
3.74912e-05
4.21896e-06
7.82439e-05
9.46207e-06
7.95711e-05
1.40787e-05
6.91892e-05
1.81568e-05
6.71308e-05
2.20564e-05
6.66987e-05
2.57712e-05
6.47656e-05
2.91542e-05
6.16853e-05
3.21184e-05
5.8125e-05
3.4644e-05
5.43258e-05
3.67382e-05
5.03254e-05
3.84147e-05
4.61475e-05
3.96909e-05
4.18375e-05
4.05882e-05
3.74464e-05
4.11312e-05
3.30189e-05
4.13463e-05
2.85919e-05
4.12597e-05
2.41963e-05
4.08975e-05
1.98583e-05
4.02858e-05
1.56011e-05
3.94518e-05
1.14449e-05
3.84244e-05
7.4094e-06
3.72336e-05
3.50985e-06
3.59025e-05
-2.48907e-07
-3.82618e-06
3.45055e-05
3.91712e-06
7.43267e-05
8.44566e-06
7.50425e-05
1.24201e-05
6.52149e-05
1.59845e-05
6.35662e-05
1.94387e-05
6.32445e-05
2.2742e-05
6.14623e-05
2.57587e-05
5.86686e-05
2.84185e-05
5.54651e-05
3.07068e-05
5.20373e-05
3.26279e-05
4.84043e-05
3.4189e-05
4.45862e-05
3.54008e-05
4.06256e-05
3.62784e-05
3.65687e-05
3.68407e-05
3.24565e-05
3.71089e-05
2.83235e-05
3.71057e-05
2.41995e-05
3.6854e-05
2.011e-05
3.63779e-05
1.60771e-05
3.57028e-05
1.212e-05
3.48557e-05
8.25638e-06
3.38663e-05
4.49925e-06
3.27513e-05
8.66074e-07
-2.64184e-06
3.15669e-05
3.66602e-06
7.06606e-05
7.56018e-06
7.11483e-05
1.09535e-05
6.18215e-05
1.40579e-05
6.04617e-05
1.71114e-05
6.0191e-05
2.00406e-05
5.85332e-05
2.27203e-05
5.59888e-05
2.50948e-05
5.30905e-05
2.71545e-05
4.99775e-05
2.89018e-05
4.66571e-05
3.03394e-05
4.31486e-05
3.14731e-05
3.94919e-05
3.23131e-05
3.57288e-05
3.2873e-05
3.18965e-05
3.31693e-05
2.80271e-05
3.322e-05
2.41487e-05
3.30442e-05
2.02857e-05
3.26619e-05
1.64593e-05
3.20942e-05
1.26876e-05
3.13632e-05
8.98735e-06
3.04913e-05
5.37107e-06
2.94994e-05
1.85801e-06
-1.5697e-06
2.84272e-05
3.44856e-06
6.72121e-05
6.79233e-06
6.78045e-05
9.65525e-06
5.89585e-05
1.23361e-05
5.77808e-05
1.50196e-05
5.75075e-05
1.76017e-05
5.5951e-05
1.9966e-05
5.36244e-05
2.2069e-05
5.09875e-05
2.39055e-05
4.81411e-05
2.54761e-05
4.50864e-05
2.67801e-05
4.18446e-05
2.78191e-05
3.8453e-05
2.85985e-05
3.49493e-05
2.91272e-05
3.13678e-05
2.94163e-05
2.77379e-05
2.94789e-05
2.40861e-05
2.93289e-05
2.04356e-05
2.89814e-05
1.68067e-05
2.8452e-05
1.3217e-05
2.77574e-05
9.68191e-06
2.69154e-05
6.21303e-06
2.59464e-05
2.82691e-06
-4.99727e-07
2.48765e-05
3.24533e-06
6.39668e-05
6.12173e-06
6.4928e-05
8.49692e-06
5.65833e-05
1.07782e-05
5.54995e-05
1.31102e-05
5.51754e-05
1.5361e-05
5.37001e-05
1.74222e-05
5.15632e-05
1.926e-05
4.91497e-05
2.08725e-05
4.65286e-05
2.22583e-05
4.37006e-05
2.3413e-05
4.06899e-05
2.43343e-05
3.75316e-05
2.50236e-05
3.42601e-05
2.54848e-05
3.09066e-05
2.57242e-05
2.74985e-05
2.575e-05
2.40603e-05
2.55716e-05
2.06139e-05
2.51996e-05
1.71786e-05
2.46458e-05
1.37707e-05
2.39242e-05
1.04035e-05
2.30519e-05
7.08534e-06
2.20519e-05
3.82696e-06
5.98736e-07
2.09534e-05
3.03767e-06
6.0929e-05
5.51976e-06
6.24457e-05
7.44462e-06
5.46583e-05
9.34339e-06
5.36007e-05
1.13327e-05
5.3186e-05
1.32584e-05
5.17743e-05
1.50204e-05
4.98011e-05
1.6593e-05
4.75771e-05
1.79757e-05
4.51458e-05
1.91641e-05
4.25121e-05
2.01505e-05
3.97035e-05
2.09297e-05