/*--------------------------------*- C++ -*----------------------------------*\
  =========                 |
  \\      /  F ield         | OpenFOAM: The Open Source CFD Toolbox
   \\    /   O peration     | Website:  https://openfoam.org
    \\  /    A nd           | Version:  13
     \\/     M anipulation  |
\*---------------------------------------------------------------------------*/
FoamFile
{
    format      ascii;
    class       volScalarField;
    location    "0.85";
    object      rho;
}
// * * * * * * * * * * * * * * * * * * * * * * * * * * * * * * * * * * * * * //

dimensions      [1 -3 0 0 0 0 0];

internalField   nonuniform List<scalar> 
2268
(
1000
1000
1000
1000
1000
1000
1000
1000
1000
1000
1000
1000
1000
1000
999.982
978.915
950.944
991.027
996.167
994.784
990.063
994.118
998.986
1000
1000
1000
1000
1000
1000
1000
1000
1000
1000
1000
1000
1000
1000
999.798
972.757
951.093
950.896
966.753
962.232
959.021
984.616
999.964
1000
1000
1000
1000
1000
1000
1000
1000
1000
1000
1000
1000
1000
1000
999.996
997.013
967.786
950.724
950.703
950.799
963.107
996.137
999.964
1000
1000
1000
1000
1000
1000
1000
1000
1000
1000
1000
1000
1000
1000
1000
999.998
999.27
990.769
993.061
999.935
1000
1000
999.968
1000
1000
1000
1000
1000
999.999
999.999
1000
1000
1000
1000
1000
1000
1000
1000
1000
1000
1000
1000
1000
1000
1000
1000
1000
1000
1000
1000
1000
999.987
999.945
999.928
999.994
1000
1000
1000
1000
1000
1000
1000
1000
1000
1000
1000
1000
1000
999.99
1000
1000
1000
1000
1000
999.966
999.758
999.803
999.984
999.997
999.997
999.998
999.999
1000
1000
1000
1000
1000
1000
999.999
999.999
1000
999.959
1000
1000
1000
1000
1000
998.756
996.076
999.922
999.964
999.871
999.892
999.919
999.974
999.995
999.999
999.999
999.999
999.999
999.998
999.965
999.966
999.948
999.953
989.56
982.987
978.005
981.619
986.757
977.323
937.711
913.028
852.608
797.801
745.813
700.317
700.075
700.075
700.453
797.104
856.117
856.117
856.117
995.027
995.509
995.176
995.024
994.202
993.884
940.204
780.651
659.135
685.695
716.94
776.729
738.766
774.882
781.928
783.037
733.575
656.9
812.511
995.859
995.86
962.107
911.601
987.799
992.602
852.16
517.623
461.902
628.033
753.561
777.499
778.687
780.158
781.399
782.134
638.037
636.555
731.198
995.86
967.465
736.145
772.123
987.328
986.549
739.717
375.692
295.791
263.437
368.362
649.42
758.01
778.987
780.043
781.381
763.584
634.998
634.692
995.539
848.861
736.067
737.007
986.386
978.993
632.535
211.097
123.696
119.866
129.772
200.558
308.003
420.498
634.131
780.474
778.812
634.859
634.998
981.805
893.171
736.08
782.386
974.666
960.685
483.565
110.2
113.04
116.228
120.155
138.462
160.707
182.952
367.271
778.645
778.05
682.171
759.051
978.391
985.034
818.941
724.398
934.278
928.578
352.538
107.906
109.794
113.151
117.59
187.955
393.489
633.621
687.985
701.792
776.785
774.662
773.328
985.176
988.693
958.691
723.641
879.191
896.018
296.879
107.94
107.887
146.57
126.796
192.026
579.019
709.336
738.148
759.988
774.571
765.046
718.117
1000
1000
1000
1000
999.554
999.86
999.863
999.916
999.259
997.11
984.379
964.031
967.635
991.485
999.992
999.98
999.999
999.954
996.51
970.224
962.368
994.546
999.953
784.831
892.422
921.089
854.205
782.255
863.274
999.859
999.797
947.086
720.268
425.955
295.737
299.122
443.877
604.897
670.488
693.978
691.626
522.806
394.781
370.679
463.36
763.037
252.13
231.55
238.803
583.861
896.348
910.775
922.902
649.253
296.07
49.9119
10.6135
5.44508
5.20246
4.91911
4.8935
28.9149
75.9728
107.208
134.315
170.217
108.882
44.1704
74.7833
83.8937
93.0407
532.986
847.083
882.018
582.53
146.937
33.5539
31.5756
92.7668
128.136
27.9949
6.13731
4.88992
4.88992
4.88992
4.98926
5.61786
46.255
288.824
281.416
23.17
12.3037
80.5342
193.038
380.094
234.939
106.839
31.6696
3.19379
3.39295
29.5903
138.339
148.013
149.675
147.948
26.6939
9.5812
4.989
5.63938
6.67835
97.3711
293.485
294.454
215.189
12.2919
91.7447
94.5904
17.1661
1.95524
2.38061
1.28104
1.10113
1.06983
1.11281
3.65242
94.798
152.929
154.519
154.519
154.519
68.2887
39.3579
27.0447
177.521
294.156
293.425
291.624
40.5874
69.3502
5.23163
2.04227
1.22739
1.05413
1.01746
1.00654
1.00442
1.01398
1.02217
1.30664
3.98089
98.4592
154.355
154.14
153.761
153.759
107.106
207.97
281.519
291.624
283.095
53.4143
29.4731
1.92049
1.19911
1.02854
1.00435
1.00107
1.00074
1.00209
1.00038
1.00783
1.00061
1.00134
1.04999
1.00195
51.1051
131.819
103.797
14.4511
1.4918
5.21979
179.901
268.09
91.873
3.1643
1.21758
1.05178
1.00453
1.00033
1.00006
1.00001
1.00031
1.00033
1.00007
1.00007
1.00006
1.00009
1.00026
1.00096
1.00353
1.01268
1.04306
1.15599
1.5298
3.1658
90.2888
177.152
1.9248
1.05463
1.00774
1.00054
1.00003
1
1
1
1.00007
1.00026
1.0001
1.00004
1.00005
1.00012
1.00047
1.00212
1.01402
1.07015
1.16105
1.35672
1.38557
1.6072
74.9029
1.43039
1.09324
1.00475
1.00009
1
1
1
1
1
1.00014
1.00014
1.00004
1.00013
1.00015
1.00044
1.00328
1.16875
1.60514
1.60514
1.51207
1.30109
1.24606
1.12794
1.60405
1.57379
1.01455
1.00035
1
1
1
1
1
1.00006
1.00007
1.00001
1.00016
1.00018
1.00093
1.01078
1.09911
1.59032
1.60514
1.59682
1.33799
1.2543
1.09053
1.20527
1.74798
1.1966
1.00052
1.00025
1.00001
1.00001
1
1.00001
1.00001
1.00001
1
1.00003
1.00004
1.00001
1.01309
1.12136
1.12229
1.16742
1.38865
1.96979
1.99372
1.95981
1.04356
1.7383
1.69848
1.08467
1.00168
1.00008
1.00002
1.00001
1
1
1
1
1
1.00001
1.00001
1.00028
1.00001
1.2451
1.40341
1.4009
1.43015
2.00302
2.00302
1.0043
1.36371
1.60096
1.28847
1.0088
1.00077
1.0001
1.00001
1
1
1
1
1.00002
1.0001
1.00005
1.00003
1.00001
1
1.27489
1.65253
1.72489
1.7646
1.9626
1.00105
1.00953
1.10402
1.21558
1.05122
1.00126
1.0002
1.00003
1
1
1
1
1.00006
1.00011
1.00011
1.00006
1.00001
1
1
1.25962
1.63533
1.48641
1.01748
1.00009
1.00181
1.01003
1.01556
1.02954
1.00633
1.00018
1.00003
1
1
1
1
1.00002
1.00011
1.00011
1.00009
1.00001
1
1
1
1.1313
1.13334
1.01409
1.00002
1.00019
1.00263
1.0027
1.00295
1.00211
1.00021
1.00001
1
1
1
1
1
1.00002
1.00006
1.00004
1
1
1.00001
1.00025
1
1
1
1.00001
1.00002
1.00057
1.00056
1.00034
1.00012
1.00003
1
1
1
1
1
1
1
1
1
1
1
1
1
1
1
1
1
1.00001
1.0001
1.0001
1.00005
1.00002
1
1
1
1
1
1
1
1
1
1
1
1
1
1
1
1
1
1
1
1.00002
1.00001
1.00001
1
1
1
1
1
1
1
1
1
1
1
1
1
1
1
1
1
1
1
1
1
1
1
1
1
1
1
1
1
1
1
1
1
1
1
1
1
1
1
1
1
1
1
1
1
1
1
1
1
1
1
1
1
1
1
1
1
1
1
1
1
1
1
1
1
1
1
1
1
1
1
1
1
1
1
1
1
1
1
1
1
1
1
1
1
1
1
1
1
1
1
1
1
1
1
1
1
1
1
1
1
1
1
1
1
1
1
1
1
1
1
1
1
1
1
1
1
1
1
1
1
1
1
1
1
1
1
1
1
1
1
1
1
1
1
1
1
1
1
1
1
1
1
1
1
1
1
1
1
1
1
1
1
1
1
1
1
1
1
1
1
1
1
1
1
1
1
1
1
1
1
1
1
1
1
1
1
1
1
1
1
1
1
1
1
1
1
1
1
1
1
1
1
1
1
1
1
1
1
1
1
1
1
1
1
1
1
1
1
1
1
1
1
1
1
1
1
1
1
1
1
1
1
1
1
1
1
1
1
1
1
1
1
1
1
1
1
1
1
1
1
1
1
1
1
1
1
1
1
1
1
1
1
1
1
1
1
1
1
1
1
1
1
1
1
1
1
1
1
1
1
1
1
1
1
1
1
1
1
1
1
1
1
1
1
1
1
1
1
1
1
1
1
1
1
1
1
1
1
1
1
1
1
1
1
1
1
1
1
1
1
1
1
1
1
1
1
1
1
1
1
1
1
1
1
1
1
1
1
1
1
1
1
1
1
1
1
1
1
1
1
1
1
1
1
1
1
1
1
1
1
1
1
1
1
1
1
1
1
1
1
1
1
1
1
1
1
1
1
1
1
1
1
1
1
1
1
1
1
1
1
1
1
1
1
1
1
1
1
1
1
1
1
1
1
1
1
1
1
1
1
1
1
1
1
1
1
1
1
1
1
1
1
1
1
1
1
1
1
1
1
1
1
1
1
1
1
1
1
1
1
1
1
1
1
1
1
1
1
1
1
1
1
1
1
1
1
1
1
1
1
1
1
1
1
1
1
1
1
1
1
1
1
1
1
1
1
1
1
1
1
1
1
1
1
1
1
1
1
1
1
1
1
1
1
1
1
1
1
1
1
1
1
1
1
1
1
1
1
1
1
999.95
999.947
999.947
999.947
866.01
864.208
851.443
858.633
125.288
361.974
695.976
802.639
17.4635
217.254
672.525
803.742
11.5389
50.0314
45.475
14.0772
6.55204
6.48282
6.38339
6.80866
6.30258
6.2759
6.26401
6.29605
6.27823
6.26401
6.26401
6.26403
173.602
21.1465
6.26401
12.4744
165.048
185.064
260.705
282.842
1.07142
1.07021
1.06804
32.898
1.0629
1.03955
1.01214
1.01178
1.08623
1.04501
1.00504
1.00154
2.00297
1.74025
1.01609
1.00047
1.98205
1.95021
1.81723
1.00103
1.40464
1.92828
1.88151
1.17508
1
1.04229
1.15874
1.05601
1
1
1
1
1
1
1
1
1
1
1
1
1
1
1
1
1
1
1
1
1
1
1
1
1
1
1
1
1
1
1
1
1
1
1
1
1
1
1
1
1
1
1
1
1
1
1
1
1
1
1
1
1
1
1
1
1
1
1
1
1
1
1
1
1
1
1
1
1
1
1
1
1
1
1
1
1
1
1
1
1
1
1
1
1
1
1
1
1
1
1
1
1
1
1
1
1
1
1
1
995.721
989.171
959.976
802.064
875.663
860.738
277.277
98.8576
156.721
214.71
179.273
248.492
483.525
544.317
469.886
464.478
657.107
686.892
619.133
968.972
575.141
368.171
565.533
871.987
798.719
153.943
92.4677
216.218
216.793
186.839
145.596
53.1993
1.5134
2.47474
3.42543
255.438
720.576
826.816
821.078
477.167
411.951
660.246
867.902
664.822
4.94748
7.42354
19.7678
1.38713
1.38763
1.3907
1.39886
1.42029
1.44172
2.0394
2.63839
133.458
760.46
841.088
880.8
881.957
885.597
862.599
425.884
2.62203
1.72374
1.40534
1.38722
1.38712
1.38763
1.3907
1.40076
1.40393
1.45037
1.61741
2.40965
75.5747
250.317
774.173
889.291
889.385
808.871
178.086
2.44402
2.25543
2.3213
6.42253
4.77074
1.56698
1.39953
1.40388
1.41709
1.43104
1.45763
1.75664
3.6229
9.91396
333.39
889.364
889.291
743.514
29.8743
2.61144
2.44402
8.79186
11.4186
11.433
11.4012
5.33882
2.50076
1.43106
1.45253
1.48054
3.96514
41.7268
6.81396
62.6174
676.894
885.815
806.662
28.5512
2.63322
2.56808
5.38531
6.06708
7.25285
6.91476
6.96864
7.00386
2.55198
1.48023
1.43414
2.13021
48.2542
6.30827
6.75651
200.538
858.191
874.058
210.987
2.5138
2.21118
2.00916
1.97488
1.97488
1.97488
1.97661
6.79954
8.97969
6.95091
1.37795
1.215
48.3346
23.3037
17.3071
22.4303
323.821
871.955
809.297
67.6531
2.37259
2.00318
1.97694
1.97482
1.97638
1.98007
2.00591
13.0586
13.1541
1.43573
1.181
46.8647
288.026
286.589
227.191
209.278
570.087
831.31
282.509
2.81355
2.09554
1.99391
1.97694
1.98007
2.00644
5.97468
45.2157
16.4443
1.18904
1.181
42.7418
291.289
534.477
587.906
589.819
617.833
751.652
208.908
3.40441
2.29637
2.05607
1.99448
2.0181
2.29651
131.539
146.911
16.8946
1.25482
1.21031
45.9321
1.01638
1.1773
216.034
541.531
609.668
531.167
205.361
230.44
370.063
309.455
112.924
37.2356
137.893
238.593
160.438
10.9354
1.07944
1.12104
45.9494
1.0005
1.00293
1.04036
37.4543
434.276
543.425
560.687
571.799
571.717
571.785
571.367
570.071
521.744
241.785
1.18586
1.00665
1.01012
1.00008
45.8957
1.00029
1.00028
1.00039
1.00091
7.8289
228.525
374.016
332.158
320.316
361.852
305.304
119.116
1.00001
1.00003
1.00315
1.00032
1.00007
1.00007
45.8118
1.00023
1.00021
1.00024
1.00019
1.00002
1.0001
10.3099
2.41602
1
1
1
1
1
1.00001
1.00001
1.00003
1.00005
1.00006
45.6202
1.00039
1.0002
1.00102
1.001
1.00001
1.00001
1.00001
1
1
1
1.00001
1.00001
1.00002
1.00006
1.00029
1.00038
1.00009
1.00007
45.1314
1
1
1.00018
1
1.00046
1.00009
1
1
1.00002
1
1.00007
1.00007
1
1.00053
1.00103
1.00078
1.00614
1.0001
38.3376
1
1
1
1
1.00024
1.00016
1.00002
1
1
1
1
1
1
1.00065
1.00103
1.00006
1.17689
1.00247
4.53105
1
1
1
1
1
1
1.00001
1.00001
1
1
1
1
1
1
1.00088
1.00005
1.2319
1.01583
1.00346
1
1
1
1
1
1
1
1
1
1
1
1
1
1
1.0001
1.00001
1.23207
1.02428
1.0033
1
1
1
1
1
1
1
1
1
1
1
1
1
1
1.00001
1.00001
1.18575
1.01428
1.0029
1
1
1
1
1
1
1
1
1
1
1
1
1
1
1.00001
1.00002
1.00002
1.00125
1.00156
1
1
1
1
1
1
1
1
1
1
1
1
1.00001
1
1
1.00012
1.00011
1.00012
1.00283
1
1
1
1
1
1
1
1
1
1.00006
1.00049
1.00036
1.00005
1.00001
1.00005
1.00015
1.00015
1.00585
1.01937
1
1
1
1
1
1
1
1
1
1.00069
1.00083
1.00083
1.00009
1.00031
1.0004
1.00026
1.00616
1.41307
1.33452
1
1
1
1
1
1
1
1
1.00044
1.00084
1.00084
1.00039
1.00009
1.00058
1.00053
1.00026
1.04883
1.65657
1.51303
1
1
1
1
1
1
1
1.00001
1.00084
1.00084
1.00039
1.00006
1.00011
1.0006
1.00038
1.00032
1.09452
1.65929
1.02018
1
1
1
1
1
1
1
1.00016
1.00084
1.00077
1.00006
1.00006
1.00011
1.00061
1.00038
1.0093
1.07757
1.54781
1.01844
1
1
1
1
1
1
1
1.00016
1.00083
1.00025
1.00007
1.00006
1.00008
1.00122
1.03819
1.05873
1.04115
1.00005
1.00708
1
1
1
1
1
1
1
1
1.00038
1.00046
1.00209
1.00027
1.00011
1.00574
1.03819
1.03228
1.00145
1
1
1
1
1
1
1
1
1
1
1
1.00047
1.01193
1.01928
1.01529
1.01118
1.01656
1.00209
1
1
1
1
1
1
1
1
1
1
1
1
1
1.01033
1.0296
1.0296
1.0296
1.02927
1.00803
1.00001
1
1
1
1
1
1
1
1
1
1
1
1
1
1.01436
1.02796
1.02103
1.00608
1.00051
1
1
1
1
1
1
1
1
1
1
1
1
1
1
1
1
1
1
1
1
1
1
1
1
1
1
1
1
1
1
1
1
1
1
1
1
1
1
1
1
1
1
1
1
1
1
1
1
1
1
1
1
1
1
1
1
1
1
1
1
1
1
1
1
1
1
1
1
1
1
1
1
1
1
1
1
1
1
1
1
1
1
1
1
1
1
1
1
1
1
1
1
1
1
1
1
1
1
1
1
1
1
1
1
1
1
1
1
1
1
1
1
1
1
1
1
1
1
1
1
1
1
1
1
1
1
1
1
1
1
1
1
1
1
1
1
1
1
1
1
1
1
1
1
1
1
1
1
1
1
1
1
1
1
1
1
1
1
1
1
1
1
1
1
1
1
1
1
1
1
1
1
1
1
)
;

boundaryField
{
    leftWall
    {
        type            calculated;
        value           nonuniform List<scalar> 
50
(
1000
1000
1000
1000
1000
1000
1000
1000
1000
784.831
252.13
83.8937
80.5342
91.7447
69.3502
29.4731
3.1643
1.9248
1.43039
1.60405
1.20527
1.04356
1.0043
1.00105
1.00009
1.00002
1.00001
1
1
1
1
1
1
1
1
1
1
1
1
1
1
1
1
1
1
1
1
1
1
1
)
;
    }
    rightWall
    {
        type            calculated;
        value           nonuniform List<scalar> 
50
(
856.117
812.511
731.198
634.692
634.998
759.051
773.328
718.117
619.133
826.816
760.46
75.5747
3.6229
41.7268
48.2542
48.3346
46.8647
42.7418
45.9321
45.9494
45.8957
45.8118
45.6202
45.1314
38.3376
4.53105
1.00346
1.0033
1.0029
1.00156
1.00283
1.01937
1.33452
1.51303
1.02018
1.01844
1.00708
1
1
1
1
1
1
1
1
1
1
1
1
1
)
;
    }
    lowerWall
    {
        type            calculated;
        value           nonuniform List<scalar> 
62
(
1000
1000
1000
1000
1000
1000
1000
1000
1000
1000
1000
1000
1000
1000
999.982
978.915
950.944
991.027
996.167
994.784
990.063
994.118
998.986
998.986
999.964
999.964
999.968
1000
999.99
999.959
999.953
999.95
999.947
999.947
999.947
989.56
995.027
995.859
995.86
995.539
981.805
978.391
985.176
989.56
982.987
978.005
981.619
986.757
977.323
937.711
913.028
852.608
797.801
745.813
700.317
700.075
700.075
700.453
797.104
856.117
856.117
856.117
)
;
    }
    atmosphere
    {
        type            calculated;
        value           uniform 1;
    }
    defaultFaces
    {
        type            empty;
    }
}


// ************************************************************************* //
