/*--------------------------------*- C++ -*----------------------------------*\
  =========                 |
  \\      /  F ield         | OpenFOAM: The Open Source CFD Toolbox
   \\    /   O peration     | Website:  https://openfoam.org
    \\  /    A nd           | Version:  13
     \\/     M anipulation  |
\*---------------------------------------------------------------------------*/
FoamFile
{
    format      ascii;
    class       surfaceScalarField;
    location    "0.95";
    object      alphaPhi.water;
}
// * * * * * * * * * * * * * * * * * * * * * * * * * * * * * * * * * * * * * //

dimensions      [0 3 -1 0 0 0 0];

internalField   nonuniform List<scalar> 
4432
(
2.7215e-06
-2.7215e-06
2.43719e-06
2.84302e-07
-1.02455e-06
3.46174e-06
-4.90343e-06
3.87888e-06
-5.45291e-06
5.49481e-07
-3.11157e-06
-2.34133e-06
-1.32844e-06
-1.78313e-06
-1.58609e-06
2.57646e-07
-3.14865e-06
1.56257e-06
-5.38571e-06
2.23706e-06
-7.86299e-06
2.47727e-06
-9.96127e-06
2.09828e-06
-1.06518e-05
6.90566e-07
-9.48992e-06
-1.13244e-06
-9.08525e-06
-1.80546e-07
-1.35749e-05
4.23623e-06
-2.0932e-05
7.26928e-06
-2.48823e-05
4.06607e-06
-2.27978e-05
-1.93534e-06
-1.8188e-05
-4.52505e-06
-1.32037e-05
-5.16569e-06
-6.50874e-06
-6.75806e-06
-6.50881e-06
-2.57648e-06
-1.45018e-07
-5.82924e-06
3.53706e-06
-8.728e-06
6.36051e-06
-9.33232e-06
4.48321e-06
-7.16062e-06
-1.62221e-06
-3.87777e-06
-5.62418e-06
-1.77844e-06
-3.88246e-06
-1.85905e-06
3.38252e-07
-3.47996e-06
3.18348e-06
-5.76168e-06
4.51878e-06
-8.12349e-06
4.83906e-06
-1.02407e-05
4.21548e-06
-1.22472e-05
2.69715e-06
-1.44246e-05
1.2914e-06
-1.70092e-05
2.82702e-06
-1.97412e-05
6.95516e-06
-2.0245e-05
7.3995e-06
-1.71786e-05
8.84691e-07
-1.33914e-05
-5.80881e-06
-1.08896e-05
-7.11175e-06
-8.35461e-06
-7.82708e-06
-4.39062e-06
-1.08942e-05
-1.08995e-05
-4.68364e-06
4.53862e-06
-8.59998e-06
7.4534e-06
-1.04481e-05
8.20862e-06
-1.0101e-05
4.13609e-06
-7.85406e-06
-3.8691e-06
-4.5355e-06
-8.94276e-06
-2.30789e-06
-6.11006e-06
-2.35361e-06
3.83974e-07
-3.78837e-06
4.61824e-06
-5.72719e-06
6.45761e-06
-7.43573e-06
6.54759e-06
-8.66897e-06
5.44874e-06
-9.83246e-06
3.86082e-06
-1.15135e-05
3.02025e-06
-1.26094e-05
4.53075e-06
-1.22246e-05
6.55632e-06
-9.22686e-06
4.3888e-06
-6.3651e-06
-2.01693e-06
-5.39541e-06
-7.06857e-06
-5.27494e-06
-7.42685e-06
-4.70235e-06
-8.65381e-06
-2.71149e-06
-1.28905e-05
-1.36111e-05
-4.31247e-06
8.85108e-06
-7.58266e-06
1.07236e-05
-9.02562e-06
9.65159e-06
-8.89214e-06
4.0026e-06
-6.90459e-06
-5.85664e-06
-3.92007e-06
-1.19273e-05
-2.389e-06
-7.64112e-06
-2.98951e-06
9.84486e-07
-4.66916e-06
6.29788e-06
-6.73474e-06
8.52321e-06
-8.40993e-06
8.22277e-06
-9.22337e-06
6.26218e-06
-9.14537e-06
3.78283e-06
-8.27112e-06
2.14605e-06
-6.40147e-06
2.68968e-06
-3.26711e-06
3.73796e-06
-7.26976e-07
2.01305e-06
-2.70604e-07
-2.54199e-06
-2.4693e-06
-4.86987e-06
-4.37654e-06
-5.51962e-06
-4.81733e-06
-8.21302e-06
-2.97896e-06
-1.47289e-05
-1.65905e-05
-2.76733e-06
1.16184e-05
-4.93768e-06
1.2894e-05
-5.88993e-06
1.06038e-05
-5.637e-06
3.74969e-06
-3.74616e-06
-7.7474e-06
-1.73211e-06
-1.39413e-05
-1.61996e-06
-7.75327e-06
-3.28678e-06
2.65127e-06
-5.5621e-06
8.5732e-06
-8.00377e-06
1.09649e-05
-9.95978e-06
1.01788e-05
-1.08454e-05
7.1478e-06
-1.03165e-05
3.25389e-06
-8.07411e-06
-9.6278e-08
-4.41579e-06
-9.68497e-07
-5.67052e-07
-1.10926e-07
1.49308e-06
-4.70738e-08
5.04379e-07
-1.5533e-06
-2.47564e-06
-1.88986e-06
-5.54652e-06
-2.44873e-06
-6.54982e-06
-7.20973e-06
-4.05911e-06
-1.72196e-05
-2.06496e-05
-7.62813e-07
1.23812e-05
-1.47141e-06
1.36026e-05
-1.64724e-06
1.07797e-05
-7.74769e-07
2.87723e-06
1.44842e-06
-9.97073e-06
1.97167e-06
-1.44624e-05
1.29466e-07
-5.9082e-06
-2.36531e-06
5.14568e-06
-5.28324e-06
1.14911e-05
-8.28356e-06
1.39652e-05
-1.07827e-05
1.26779e-05
-1.20752e-05
8.44025e-06
-1.16348e-05
2.81355e-06
-8.95941e-06
-2.77169e-06
-4.77405e-06
-5.15386e-06
-7.45085e-07
-4.13989e-06
1.47272e-06
-2.26489e-06
1.13042e-06
-1.21099e-06
-1.60961e-06
8.50169e-07
-5.62918e-06
1.57083e-06
-7.50126e-06
-5.33756e-06
-4.80201e-06
-1.99188e-05
-2.54517e-05
1.49547e-06
1.08858e-05
2.302e-06
1.2796e-05
3.04962e-06
1.00321e-05
5.31302e-06
6.13831e-07
7.5628e-06
-1.22205e-05
6.80112e-06
-1.37018e-05
4.01156e-06
-3.11186e-06
5.47269e-07
8.61262e-06
-3.07691e-06
1.51153e-05
-6.85247e-06
1.77408e-05
-9.9444e-06
1.57699e-05
-1.1769e-05
1.02648e-05
-1.15672e-05
2.61182e-06
-8.23927e-06
-6.09944e-06
-3.18548e-06
-1.02077e-05
7.49042e-07
-8.07465e-06
2.84909e-06
-4.36517e-06
2.46849e-06
-8.3052e-07
-4.33564e-07
3.75223e-06
-5.09029e-06
6.22731e-06
-7.82914e-06
-2.59883e-06
-5.60405e-06
-2.21436e-05
-3.1056e-05
3.7572e-06
7.12856e-06
6.1219e-06
1.04313e-05
8.68829e-06
7.46567e-06
1.19448e-05
-2.64272e-06
1.31165e-05
-1.33922e-05
1.06347e-05
-1.12312e-05
7.46638e-06
5.24976e-08
2.68961e-06
1.33937e-05
-2.09459e-06
1.98995e-05
-6.48367e-06
2.21299e-05
-9.5053e-06
1.87915e-05
-1.10571e-05
1.18166e-05
-1.05494e-05
2.10414e-06
-6.57086e-06
-1.0073e-05
-1.7906e-06
-1.49898e-05
8.87099e-07
-1.07611e-05
2.1147e-06
-4.98606e-06
1.5035e-06
-2.31409e-07
-1.77494e-06
4.3235e-06
-6.70116e-06
8.92699e-06
-9.18378e-06
-1.16254e-07
-7.94121e-06
-2.33866e-05
-3.89956e-05
-3.57425e-06
3.56872e-06
-1.81932e-05
1.44256e-05
-1.44524e-05
-3.75021e-06
8.19119e-06
-2.2634e-05
2.69283e-05
-1.87335e-05
2.6847e-05
8.73991e-08
1.5743e-05
1.07804e-05
1.77982e-06
1.3668e-05
-4.85986e-06
6.42272e-06
-1.05765e-05
5.70508e-06
-1.37502e-05
3.16544e-06
-9.79969e-06
-4.21362e-06
1.87426e-06
-1.34061e-05
1.88011e-05
-1.85213e-05
2.13424e-05
-2.74665e-06
4.80806e-06
1.6353e-05
-1.1637e-05
1.82317e-05
-9.67391e-06
-1.84779e-06
-9.5616e-06
-1.21748e-05
1.5782e-05
-1.92119e-05
2.15022e-05
-1.25015e-05
-8.63798e-06
2.53564e-06
-3.0745e-05
1.71808e-05
-3.31928e-05
1.58128e-05
1.4591e-06
5.18258e-06
2.14167e-05
-6.88148e-06
2.34528e-05
-1.65172e-05
1.65594e-05
-2.66266e-05
1.58041e-05
-3.29615e-05
8.64591e-06
-3.10551e-05
-5.97676e-06
-2.02688e-05
-2.40267e-05
-4.16537e-06
-3.44814e-05
1.0948e-05
-1.85282e-05
1.0124e-05
1.69876e-05
3.80939e-07
2.85237e-05
-3.69579e-06
2.34302e-06
-1.08114e-05
-1.28159e-05
2.86369e-05
-1.41957e-05
2.3419e-05
-9.42392e-06
-1.06179e-05
-6.44089e-07
-3.95666e-05
1.09607e-06
-3.4764e-05
-6.53894e-06
8.85712e-06
-1.85667e-05
3.22977e-05
-2.61763e-05
3.02011e-05
-3.95524e-05
3.03103e-05
-4.76801e-05
2.53219e-05
-5.12943e-05
1.22431e-05
-5.01525e-05
-6.95288e-06
-4.21102e-05
-3.19257e-05
-2.42289e-05
-5.21748e-05
-6.05268e-06
-3.63339e-05
5.85084e-06
6.1758e-06
5.79577e-06
2.89433e-05
2.42187e-06
4.50439e-06
-8.56139e-06
-1.02484e-05
3.89298e-05
-1.10006e-05
2.5324e-05
-9.39592e-06
-1.23489e-05
-4.12201e-06
-4.49695e-05
-9.70461e-06
-2.86835e-05
-3.16334e-05
2.93902e-05
-4.76417e-05
4.56623e-05
-5.55535e-05
3.28701e-05
-5.80475e-05
2.77976e-05
-6.06025e-05
2.86078e-05
-6.4519e-05
1.60781e-05
-5.89034e-05
-1.31646e-06
-6.01035e-05
-1.80603e-05
-4.34735e-05
-6.83986e-05
-2.5418e-05
-5.39101e-05
-8.2012e-06
-1.06328e-05
4.63828e-07
1.62175e-05
-4.23141e-07
5.2845e-06
-9.12391e-06
-6.38098e-06
4.53614e-05
-8.66334e-06
2.89725e-05
-1.03955e-05
-1.07481e-05
-1.2555e-05
-5.12872e-05
-3.4289e-05
-7.74824e-06
-5.94221e-05
5.36596e-05
-5.53404e-05
3.69873e-05
-5.40653e-05
2.02211e-05
-6.34826e-05
2.66604e-05
-6.21401e-05
3.03806e-05
-2.16657e-05
5.04567e-06
-1.01582e-05
7.73312e-08
-1.77304e-05
-3.21079e-06
-5.36322e-05
-2.5838e-05
-3.91368e-05
-6.79287e-05
-2.07717e-05
-2.87603e-05
-9.22479e-06
4.56376e-06
-4.16323e-06
1.16086e-07
-1.49375e-05
-1.32229e-06
4.67588e-05
-5.25616e-06
3.18425e-05
-1.01998e-05
-6.2777e-06
-2.35852e-05
-4.44083e-05
-5.45058e-05
2.06915e-05
-6.37948e-05
6.48119e-05
-4.90936e-05
2.01884e-05
-4.93951e-05
1.21016e-05
-4.54489e-05
1.82815e-05
-8.60754e-06
7.69246e-06
-1.29746e-06
1.23428e-06
-1.11158e-06
3.67461e-08
-3.20409e-06
-1.06619e-06
-2.20654e-05
-5.2521e-06
-4.90818e-05
-3.44852e-05
-2.94367e-05
-4.81953e-05
-1.82208e-05
-9.38942e-06
-6.72546e-06
-1.29017e-05
-2.12935e-05
6.45184e-06
4.03565e-05
3.60884e-06
3.35649e-05
-1.92346e-08
-4.06456e-06
-1.82655e-05
-2.59286e-05
-4.87898e-05
4.46476e-05
-4.73754e-05
6.01028e-05
-4.30551e-05
9.91107e-06
-3.34194e-05
8.15886e-06
-6.51487e-06
2.84677e-07
-1.3754e-06
2.83761e-06
-5.02366e-07
4.01537e-07
-4.6384e-07
1.85895e-08
-1.0849e-06
-3.72705e-07
-4.57128e-06
-1.58607e-06
-3.09009e-05
-5.43908e-06
-3.56242e-05
-3.43636e-05
-1.8248e-05
-2.49249e-05
-6.34092e-06
-2.38119e-05
-2.72649e-05
1.2648e-05
2.77793e-05
1.31865e-05
3.19202e-05
1.01423e-05
9.8239e-07
-8.8063e-07
-1.4802e-05
-2.40475e-05
6.68649e-05
-1.82963e-05
4.03938e-05
-1.85882e-05
2.09935e-06
-1.26736e-05
2.7371e-06
-2.29228e-06
3.71294e-07
-4.66754e-07
1.04308e-06
-2.28065e-07
1.67614e-07
-2.20401e-07
1.27223e-08
-4.49242e-07
-1.33762e-07
-1.69199e-06
-3.4365e-07
-6.33401e-06
-6.23293e-07
-2.98024e-05
-2.35914e-06
-2.40108e-05
-7.37373e-06
-9.91018e-06
-1.87881e-05
-1.78268e-05
1.72585e-05
-9.9237e-06
2.68841e-05
8.14039e-07
3.4055e-05
2.9479e-07
3.86201e-05
-7.16512e-06
3.23131e-05
-7.01199e-06
2.13725e-05
-2.82927e-07
9.6454e-06
1.17802e-05
-1.53559e-05
3.83955e-05
-3.91319e-05
4.36755e-05
-4.95424e-05
2.70683e-05
-4.80694e-05
1.46128e-05
-4.45095e-05
5.96032e-06
-4.04394e-05
-1.96531e-06
-3.03941e-05
-1.86798e-05
-1.65365e-05
-1.31541e-05
-8.82973e-06
-2.0296e-06
-5.49528e-06
-1.14167e-06
-6.54917e-06
1.92951e-06
-1.02725e-05
3.48479e-06
-2.77561e-05
3.37002e-06
-3.45759e-05
-3.86949e-06
-3.06259e-05
-2.73308e-05
-5.81135e-05
-1.1662e-05
2.10015e-05
-1.5586e-05
4.13759e-05
-8.04952e-06
4.78715e-05
-4.76499e-06
4.3792e-05
-3.73566e-06
2.54305e-05
1.1051e-05
2.6505e-06
2.2505e-05
-1.20954e-05
1.88069e-05
-3.68328e-05
1.62507e-05
-4.87687e-05
7.26535e-06
-8.67735e-05
1.32274e-05
-0.000125924
1.11481e-05
-0.000120945
6.12202e-06
-0.000105418
-7.50352e-06
-3.9233e-05
-1.89446e-05
-7.83452e-06
-1.2288e-05
-8.80482e-06
-1.25602e-06
-1.15345e-05
1.46561e-06
-1.35485e-05
3.74753e-06
-1.47976e-05
3.8247e-06
-3.88402e-05
-8.4543e-07
-7.73928e-05
-2.33568e-05
-5.81764e-05
-4.66402e-05
-8.02726e-05
-2.37523e-05
1.58323e-05
-3.57956e-05
3.0671e-05
-1.66704e-05
3.66593e-05
1.69183e-06
1.52822e-05
1.71868e-05
-2.46869e-06
2.85058e-05
-1.24223e-06
1.06876e-05
-8.47476e-06
2.15926e-06
-1.05825e-05
5.79808e-06
-4.7673e-05
1.32047e-07
-0.000115958
1.62107e-05
-0.000124098
3.45855e-06
-7.07707e-05
8.26342e-08
-4.44119e-05
-3.76777e-06
-3.56842e-05
-1.46211e-05
-2.22712e-05
-1.64446e-05
-2.16778e-05
-1.98762e-06
-2.3965e-05
3.43562e-06
-2.49374e-05
3.81241e-06
-0.000101384
3.82969e-07
-8.04675e-05
-5.91244e-06
-6.1406e-05
-1.20051e-05
-3.84504e-05
-2.32791e-05
-7.52303e-05
-5.52205e-05
-1.63722e-06
-5.16059e-05
-1.78544e-05
-3.735e-06
-2.47883e-05
1.01586e-05
-1.26306e-05
3.4431e-06
-1.34264e-06
2.28807e-07
-1.68226e-06
2.95354e-07
-2.42988e-06
6.25846e-07
-3.4237e-06
6.96394e-06
-1.36322e-05
5.69054e-06
-1.48138e-05
6.62887e-07
-1.14616e-05
0
-1.03195e-05
0
-2.46116e-06
-9.05619e-07
-3.03449e-05
-8.39334e-06
-8.81241e-05
-2.57796e-05
-8.05106e-05
-3.51561e-06
-7.97374e-05
8.07171e-06
-7.5505e-05
6.09417e-06
-6.57436e-05
-1.89483e-06
-2.09791e-05
-6.0915e-06
-1.03539e-05
-7.97247e-06
-1.14723e-05
-1.48012e-05
-8.93277e-05
-7.89329e-05
-4.33674e-05
-4.04388e-06
-5.24065e-05
1.90303e-05
-1.70335e-05
2.15179e-07
-1.4525e-05
3.71253e-08
-1.60744e-05
1.32536e-07
-1.23683e-05
4.95728e-07
-2.27005e-06
3.93927e-06
-5.92483e-07
4.42093e-06
-2.79105e-07
5.26246e-06
-6.50904e-07
6.34976e-07
-1.12697e-06
4.33625e-07
-5.58369e-07
0
-8.23976e-07
4.30285e-09
-1.70418e-05
-6.88009e-07
-4.40032e-05
-3.2181e-06
-4.84641e-05
-2.65013e-06
-3.00353e-05
0
-2.19811e-05
-2.77447e-07
-1.61937e-05
-1.09101e-05
-1.26573e-05
-1.23966e-05
-1.05727e-05
-1.1791e-05
-1.77879e-05
-1.47373e-05
-0.000107014
-0.000106832
-4.80437e-05
3.88287e-05
-1.93526e-05
1.74001e-05
-2.13572e-05
2.40182e-06
-2.32458e-05
1.29355e-06
-2.34053e-05
-6.34991e-08
-2.04364e-05
-3.15343e-07
-1.72621e-05
7.76881e-07
-7.18822e-06
4.14168e-06
4.55924e-08
5.84787e-06
1.66696e-07
5.58746e-06
-1.58938e-07
1.00943e-06
-3.67212e-07
4.26754e-07
-5.77639e-07
1.07996e-07
-1.46225e-06
7.69263e-09
-4.38544e-06
-5.40547e-07
-5.75577e-06
-2.08807e-06
-1.50182e-05
-7.27587e-06
-2.899e-05
-1.09428e-05
-1.79483e-05
-1.39942e-05
-1.52561e-05
-1.71816e-05
0
-1.50865e-05
-2.12456e-05
-7.34356e-06
-8.0563e-05
-0.000129194
-2.32075e-05
6.1335e-05
-3.63583e-06
2.61898e-05
-2.22666e-06
1.08801e-06
-1.17596e-06
1.59731e-07
-9.92072e-07
3.73502e-09
-8.53056e-06
-5.45124e-08
-1.92862e-05
-5.03392e-07
-1.41428e-05
2.37271e-07
-9.94351e-06
2.52249e-06
-5.10493e-06
6.13107e-06
-4.19748e-07
3.38959e-06
-1.63086e-07
2.21189e-07
-1.04365e-07
4.36457e-08
-1.69502e-07
4.43299e-08
-6.33568e-07
-2.74619e-08
-1.33151e-05
-3.7288e-07
-2.92814e-05
-5.89686e-06
-2.41408e-05
-8.25747e-06
-1.94444e-05
-1.15458e-05
-1.80968e-05
-1.05207e-05
-1.73528e-06
-9.86831e-07
-1.91951e-06
-1.58394e-06
-1.80835e-05
-0.000106626
-1.66471e-05
7.93317e-05
-9.35336e-07
3.15867e-05
-1.84604e-07
3.66214e-07
-4.09658e-08
2.19813e-08
-4.90113e-08
2.98755e-09
-1.36358e-07
7.64624e-10
-7.23988e-07
-5.11597e-08
-4.79752e-06
-1.67829e-07
-1.08157e-05
9.89764e-08
-8.86245e-06
2.34935e-06
-2.57717e-07
1.99501e-06
-6.67541e-08
7.89113e-08
-4.16401e-08
1.76811e-08
-2.59795e-08
2.68982e-09
-4.6153e-08
0
-3.83249e-07
-1.89691e-08
-7.81767e-06
-4.55802e-08
-1.40115e-05
-6.4958e-08
-9.33684e-06
-6.42819e-08
-4.85495e-07
-8.87006e-08
-1.38654e-06
-1.00591e-07
-2.63483e-06
-4.02039e-07
-2.80162e-06
-1.97711e-05
-1.25787e-05
9.30764e-05
-2.73188e-07
2.79816e-05
-3.13518e-08
1.30103e-07
-1.32146e-08
5.07624e-09
-1.41006e-08
1.46823e-09
-2.18078e-08
2.54037e-10
-1.65312e-07
-6.02287e-09
-9.02634e-07
-7.39836e-08
-2.22888e-06
-4.42444e-08
-2.19535e-06
0
-1.03935e-07
1.69928e-07
-2.24911e-08
1.22383e-08
-7.7142e-09
3.69821e-09
-4.97033e-09
5.32935e-10
-5.07115e-09
-1.38368e-10
-9.64946e-09
-5.26419e-09
-1.5605e-08
-3.04981e-08
-2.03354e-08
-5.21969e-08
-3.18201e-08
-4.37073e-08
-7.29974e-08
-3.75019e-08
-1.3862e-07
-3.23901e-08
-4.79186e-07
-6.57868e-08
-3.85932e-07
-2.89309e-06
-7.56639e-06
0.000104021
-9.05315e-08
1.18488e-05
-7.14484e-09
4.79008e-08
-3.56464e-09
1.78032e-09
-3.21858e-09
5.33558e-10
-4.67005e-09
2.29914e-10
-5.47825e-08
1.10323e-10
-2.1379e-07
-3.79967e-09
-3.09883e-07
-1.01567e-10
-2.01967e-07
0
-2.1601e-08
1.27545e-08
-3.8407e-09
3.46446e-09
-9.09943e-10
6.52206e-10
-2.97627e-10
4.28084e-11
-3.19263e-10
-4.2183e-11
-2.58713e-09
-9.81359e-10
-1.44396e-08
-1.4913e-08
-2.69679e-08
-3.44085e-08
-2.85508e-08
-3.70022e-08
-2.95596e-08
-4.05051e-08
-3.24923e-08
-3.8752e-08
-7.41591e-08
-1.53132e-08
-4.43791e-08
-4.72121e-07
-4.14044e-06
0.000112492
-3.1969e-08
3.64917e-06
-1.90595e-09
1.81108e-08
-8.06024e-10
7.2864e-10
-5.71637e-10
1.6203e-10
-6.65251e-10
5.6754e-11
-2.17778e-09
0
-5.19818e-08
0
-1.01037e-07
0
-6.53582e-08
1.45943e-09
-3.64176e-09
0
-5.77614e-10
3.84739e-10
-7.34508e-11
7.37109e-11
-2.82642e-11
2.36495e-12
-6.88432e-11
-3.04811e-12
-1.02289e-09
-3.22155e-11
-7.57592e-09
-6.7186e-10
-2.8418e-08
-8.15148e-09
-3.19673e-08
-2.54973e-08
-2.94228e-08
-3.50941e-08
-1.99611e-08
-4.15642e-08
-1.00402e-08
-1.58951e-08
-3.77845e-09
-5.15931e-08
-1.50777e-06
0.000117785
-1.20018e-08
2.00244e-06
-6.23799e-10
6.78095e-09
-1.78412e-10
2.77758e-10
-9.83202e-11
4.86577e-11
-1.09178e-10
1.71731e-11
-6.20715e-10
0
-3.56441e-09
0
-6.97801e-09
0
-1.02026e-08
4.66697e-11
-4.85068e-09
5.65974e-10
-2.76113e-10
3.19077e-10
-5.09094e-12
1.80977e-12
-3.3417e-12
-6.67297e-13
-5.42661e-12
-2.16534e-12
-2.9931e-11
-6.69987e-12
-6.89088e-10
-9.1448e-12
-8.68906e-09
-1.3542e-10
-1.62742e-08
-2.76512e-09
-2.46779e-08
-1.87348e-08
-2.2353e-08
-2.89057e-08
-2.94456e-09
-3.47808e-10
-2.03236e-09
-3.86139e-09
-1.22012e-06
8.71722e-05
-4.37571e-09
7.87143e-07
-2.0018e-10
2.60441e-09
-4.13866e-11
1.05211e-10
-2.17449e-11
1.97257e-11
-2.65368e-11
9.89322e-12
-1.10368e-10
5.25469e-12
-2.58581e-10
6.71682e-12
-3.60658e-10
1.43599e-11
-3.37289e-10
1.36291e-11
-2.85454e-10
2.92866e-11
-5.46934e-11
7.72791e-12
-4.61534e-12
-7.02726e-13
-4.1838e-12
-2.35092e-12
-3.02244e-12
-3.8526e-12
-2.40322e-12
-6.71449e-12
-4.85819e-12
-4.04566e-12
-1.38656e-10
-1.32024e-12
-2.9032e-09
-3.90995e-13
-4.36655e-09
-1.02723e-12
-1.41e-10
-6.89748e-12
-4.51981e-10
-3.8661e-11
-5.14991e-10
-1.34705e-09
-4.773e-07
3.58886e-05
-1.66825e-09
3.11673e-07
-6.37287e-11
9.96848e-10
-1.12684e-11
4.30536e-11
-7.95205e-12
1.24725e-11
-1.14943e-11
9.56974e-12
-2.51601e-11
1.1226e-11
-4.58164e-11
1.63612e-11
-5.34949e-11
1.45586e-11
-3.79496e-11
2.73398e-13
-1.77738e-11
1.73617e-12
-1.08294e-11
-1.92767e-12
-9.1825e-12
-2.8341e-12
-7.35378e-12
-5.26305e-13
-6.75493e-12
-2.41213e-12
-4.69685e-12
-6.69488e-12
-2.54882e-13
-4.53362e-12
-1.15413e-13
-1.33537e-12
-1.17677e-13
-2.75737e-13
-4.21748e-13
-5.98896e-13
-6.12761e-12
-1.06961e-12
-4.11022e-11
-3.73074e-12
-2.74609e-11
-7.10467e-10
-1.8662e-07
7.1102e-05
-6.30892e-10
1.25744e-07
-2.03576e-11
3.83044e-10
-4.12766e-12
2.3031e-11
-4.78313e-12
1.02181e-11
-7.86724e-12
1.01996e-11
-1.2063e-11
1.12528e-11
-1.67035e-11
1.34195e-11
-2.3957e-11
1.15706e-11
-2.66717e-11
1.44755e-11
-2.84974e-11
-2.93954e-12
-2.39967e-11
-1.14619e-11
-1.82981e-11
-1.11844e-11
-1.08292e-11
-7.21706e-12
-7.65661e-12
-1.72959e-12
-5.30678e-12
-2.03063e-12
-1.72694e-12
-1.21405e-12
-1.77557e-13
-3.45976e-13
-1.13944e-13
-2.43503e-13
-7.35705e-14
-5.05048e-13
-3.3971e-13
-7.41479e-13
-3.47046e-13
-6.61024e-12
-1.52942e-11
-1.02675e-11
-7.38646e-08
9.73288e-05
-2.35052e-10
5.21353e-08
-5.37089e-12
1.50968e-10
-2.72135e-12
1.76805e-11
-4.46845e-12
9.11131e-12
-8.68956e-12
1.16507e-11
-1.7535e-11
1.77924e-11
-4.51792e-11
4.36791e-11
-1.18467e-10
8.71606e-11
-2.77192e-10
2.09875e-10
-2.10972e-10
-6.705e-11
-1.8972e-10
-1.31177e-11
-1.08858e-10
-8.57997e-11
-3.04993e-11
-9.65777e-11
-5.38055e-12
-2.89273e-11
-7.89918e-13
-5.78078e-12
-1.75613e-13
-9.16446e-13
-9.76575e-14
-1.54568e-13
-1.27864e-13
-1.0275e-13
-5.57955e-14
-3.21588e-13
-6.5998e-13
-4.27342e-13
-2.39903e-12
-3.09061e-12
-7.07078e-12
-4.28595e-13
-3.13324e-08
0.000102361
-7.7072e-11
2.273e-08
-6.3532e-12
8.3246e-11
-2.91307e-11
3.81781e-11
-2.89047e-10
2.73801e-10
-1.73104e-09
1.45602e-09
-8.10973e-09
6.5179e-09
-3.12224e-08
4.57101e-08
-1.30637e-08
2.15769e-08
-5.21614e-09
2.72164e-09
-1.4008e-09
-4.49173e-10
-1.11425e-09
-3.07725e-10
-6.6721e-10
-8.1466e-10
-2.0842e-10
-5.87701e-10
-3.48119e-11
-2.39932e-10
-3.56108e-12
-4.10091e-11
-2.59165e-13
-4.58676e-12
-3.0902e-14
-4.01151e-13
-5.24611e-14
-7.23912e-14
-4.22496e-14
-5.87152e-14
-2.12149e-15
-9.33583e-14
-1.55121e-12
-7.92644e-15
-1.24343e-14
-9.29705e-13
-1.17241e-10
0.000106425
-3.59743e-11
2.12766e-08
-2.52174e-11
8.47159e-11
-1.77649e-10
2.26569e-10
-1.39402e-09
1.59412e-09
-8.67538e-09
9.07917e-09
-7.20356e-08
7.12158e-08
-1.03582e-07
8.73708e-08
-1.18879e-07
4.39002e-08
-1.12027e-07
1.9275e-09
-2.01138e-08
-2.4021e-08
-9.55062e-09
-1.06218e-08
-3.73354e-09
-6.71519e-09
-1.16598e-09
-3.98156e-09
-1.92139e-10
-1.3967e-09
-1.98262e-11
-2.36074e-10
-1.3968e-12
-2.49932e-11
-8.79276e-14
-1.75895e-12
-9.74184e-15
-8.87042e-14
-8.74337e-15
-3.14106e-14
-1.01436e-15
-9.22238e-15
-1.05594e-15
-6.1455e-15
-1.01863e-14
-1.4772e-15
2.40143e-07
6.96512e-05
-4.41922e-11
1.50067e-07
-5.84729e-11
1.14076e-10
-3.90032e-10
4.34716e-10
-2.81869e-09
3.6205e-09
-3.70864e-08
4.46283e-08
-8.88246e-08
1.34779e-07
-9.65826e-08
1.00711e-07
-9.33119e-08
4.76551e-08
-8.51757e-08
8.16882e-10
-8.09892e-08
-2.21489e-08
-4.09303e-08
-3.81259e-08
-1.25941e-08
-4.40741e-08
-3.78494e-09
-1.52279e-08
-7.068e-10
-5.27234e-09
-7.78847e-11
-9.92564e-10
-5.41745e-12
-1.07642e-10
-3.10823e-13
-7.46886e-12
-1.11217e-14
-3.21188e-13
-1.17211e-15
-4.29433e-14
-5.48254e-16
-1.19282e-14
-6.00499e-16
-4.45175e-15
-6.2858e-15
-1.51154e-15
-1.16098e-07
2.8416e-06
-3.04227e-11
3.38691e-08
-5.01792e-11
1.48875e-10
-9.90661e-11
4.97785e-10
-1.00222e-09
4.40426e-09
-4.50206e-08
8.09649e-08
-5.4474e-08
1.48802e-07
-4.71989e-08
9.75744e-08
-9.92416e-09
1.86362e-08
-7.89312e-09
-4.463e-10
-1.69901e-08
-3.25842e-09
-1.69569e-08
-4.00786e-08
-3.46191e-08
-8.05418e-08
-8.90911e-09
-1.6773e-07
-1.38782e-09
-1.65332e-08
-1.19528e-10
-2.89534e-09
-5.36536e-12
-4.78603e-10
-9.83124e-14
-3.50126e-11
0
-2.24682e-12
4.17282e-18
-1.39295e-13
-4.8189e-17
-1.40142e-14
-1.50259e-16
-1.72325e-15
-2.70367e-16
-3.85276e-16
-4.17447e-08
1.46841e-05
-3.67946e-12
3.47039e-08
-9.28384e-12
1.59104e-10
-2.41185e-11
6.49876e-10
0
4.56348e-09
-1.3562e-08
6.11187e-08
-1.05311e-08
1.49596e-07
-1.57947e-09
9.27046e-08
9.45867e-10
4.22075e-09
1.08209e-09
-1.24617e-09
1.69427e-09
-4.58283e-09
2.63996e-08
-9.07532e-09
4.94883e-08
-1.2294e-07
3.23977e-08
-1.66331e-07
4.66948e-10
-9.83632e-08
0
-1.46437e-08
0
-1.61922e-09
0
-1.4113e-10
0
-9.79945e-12
0
-5.65615e-13
1.87143e-16
-2.89421e-14
2.07296e-17
-1.75009e-15
-1.7851e-16
2.32999e-18
1.4036e-07
3.74998e-05
1.29609e-08
6.16135e-07
3.56625e-11
1.44682e-08
6.54197e-11
6.64243e-10
1.45683e-09
2.4661e-09
1.54565e-08
1.15635e-08
2.71466e-08
3.28897e-08
2.07877e-08
1.92889e-08
6.75172e-09
2.56467e-09
6.64443e-09
-1.83541e-09
7.509e-09
-6.10485e-09
1.50754e-08
-1.77421e-08
1.04075e-07
-9.3945e-08
1.05085e-07
-1.57199e-07
3.87228e-08
-1.44906e-07
0
-3.78739e-08
0
-2.71966e-09
0
-2.67009e-10
0
-1.94169e-11
0
-1.21354e-12
1.65243e-16
-6.36052e-14
3.92997e-17
-2.88863e-15
-1.55262e-16
2.28999e-18
1.80748e-06
3.72903e-05
6.37416e-08
2.66158e-06
1.40255e-09
7.70061e-08
4.26285e-11
2.00304e-09
4.45616e-10
1.95646e-09
4.00935e-09
7.53752e-09
1.05604e-08
1.67097e-08
1.23099e-08
8.46973e-09
1.13994e-08
-9.28597e-10
1.37476e-08
-6.31596e-09
1.94657e-08
-1.29198e-08
5.91096e-08
-5.83956e-08
1.74054e-07
-1.08666e-07
1.54159e-07
-1.29017e-07
1.06873e-07
-1.10414e-07
1.07272e-09
-2.44711e-08
7.92122e-11
-2.34314e-09
1.41408e-12
-2.4643e-10
0
-2.12489e-11
0
-1.48186e-12
2.36153e-16
-8.34482e-14
6.71115e-17
-3.79802e-15
-1.65255e-16
0
2.64629e-06
3.56055e-05
1.85019e-07
7.35983e-06
7.07479e-09
2.57923e-07
1.63205e-10
7.7124e-09
2.35158e-10
1.75043e-09
2.64578e-09
5.41994e-09
9.44527e-09
8.06669e-09
4.77049e-08
1.00682e-08
5.54334e-08
-5.16102e-09
4.48031e-08
-1.03504e-08
7.65093e-08
-4.65556e-08
2.17348e-07
-8.83304e-08
2.27523e-07
-9.92107e-08
1.97374e-07
-8.64986e-08
5.35067e-08
-8.74927e-08
1.783e-09
-8.60285e-09
1.61644e-10
-1.26637e-09
1.22857e-11
-1.521e-10
7.4797e-13
-1.40948e-11
3.65025e-14
-1.03741e-12
1.44127e-15
-6.08314e-14
9.08509e-17
-2.92851e-15
-1.25534e-16
1.8803e-18
3.86077e-06
3.25427e-05
1.63393e-06
2.16882e-05
8.44971e-08
1.90066e-06
6.0804e-09
8.54768e-08
1.03639e-09
6.33981e-09
1.21687e-08
4.51422e-08
6.88171e-08
4.75797e-08
7.00001e-08
-1.49373e-09
8.92972e-08
-2.14786e-08
1.24873e-07
-2.38585e-08
2.46035e-07
-6.34248e-08
2.51123e-07
-7.37834e-08
2.2547e-07
-5.4583e-08
1.86306e-07
-3.135e-08
1.62604e-08
-1.61557e-08
1.38696e-09
-1.90888e-09
1.56284e-10
-3.61527e-10
1.41577e-11
-4.58164e-11
9.90282e-13
-4.50534e-12
5.46217e-14
-3.3495e-13
2.40466e-15
-1.93115e-14
1.07059e-16
-1.00489e-15
-4.6594e-17
3.39037e-18
1.35244e-06
1.05984e-06
2.55334e-06
1.38845e-05
5.25145e-07
1.46125e-05
2.49195e-07
5.7246e-06
8.7421e-08
2.13456e-06
9.86345e-08
3.67819e-07
6.56989e-08
3.04771e-08
8.82624e-08
-2.75969e-08
7.15018e-08
-2.55988e-08
1.67513e-07
-1.23544e-08
2.16619e-07
-7.40122e-08
2.00801e-07
-3.8801e-08
1.73057e-07
-1.0018e-08
5.40665e-08
-3.7514e-09
2.3835e-09
-8.60368e-10
4.05744e-10
-2.2355e-10
4.90832e-11
-4.65897e-11
4.73153e-12
-5.91552e-12
3.55325e-13
-5.60439e-13
2.10444e-14
-3.6444e-14
1.11844e-15
-1.90914e-15
5.11693e-17
-1.06227e-16
-4.35335e-18
1.84885e-18
5.04131e-07
1.62194e-07
3.19371e-06
4.72069e-06
2.08065e-06
8.35982e-06
1.20634e-06
8.00046e-06
2.63769e-07
3.73279e-06
1.30645e-07
4.20129e-07
8.97409e-08
5.46595e-09
6.59864e-08
-2.39648e-08
3.58486e-08
-1.19913e-08
5.62403e-08
-5.34749e-09
1.2855e-07
-2.6012e-08
1.14887e-07
-3.38057e-09
3.87269e-08
1.60792e-09
1.14161e-09
0
2.44011e-10
-4.61104e-11
5.16189e-11
-1.89757e-11
6.36487e-12
-3.9969e-12
5.90636e-13
-4.87623e-13
3.86148e-14
-3.86028e-14
2.0425e-15
-1.79129e-15
1.1062e-16
-9.53655e-17
4.41324e-18
-5.58801e-18
-2.38538e-19
1.81646e-19
2.82605e-08
2.57516e-08
1.10117e-06
3.65495e-07
2.40342e-06
1.31845e-06
1.5499e-06
1.40414e-06
4.83535e-07
9.04559e-07
1.3254e-07
1.76817e-07
5.38399e-08
2.61262e-09
1.51826e-08
-5.06353e-09
1.3576e-09
-1.707e-09
8.05531e-09
-3.12813e-10
2.40452e-08
-5.11521e-10
1.80821e-08
0
2.26165e-09
0
7.89868e-11
0
2.55298e-11
-4.03166e-12
4.43395e-12
-1.46078e-12
5.23723e-13
-2.45399e-13
4.0545e-14
-2.27912e-14
1.84536e-15
-1.22111e-15
9.65631e-17
-7.50349e-17
5.52768e-18
-4.69989e-18
2.37264e-19
-2.86347e-19
-1.30132e-20
1.03632e-20
-6.09346e-09
7.58686e-09
1.60682e-07
9.06041e-08
4.90026e-07
3.02044e-07
5.33523e-07
1.11156e-07
2.29264e-07
1.05165e-09
2.84684e-08
0
1.15772e-08
5.34426e-10
2.67735e-09
-1.97198e-11
4.59795e-10
-9.01144e-11
1.92328e-10
-1.30084e-11
3.74622e-11
-1.09698e-12
2.53949e-10
0
2.88e-10
0
2.74029e-11
0
1.78654e-12
-3.42531e-13
2.70782e-13
-8.27758e-14
2.41807e-14
-9.36285e-15
1.28835e-15
-6.89243e-16
7.94651e-17
-6.06489e-17
5.06409e-18
-4.46549e-18
2.73207e-19
-2.91618e-19
1.36685e-20
-1.7373e-20
-8.71726e-22
6.46801e-22
2.14623e-10
2.14178e-09
4.41387e-08
2.24745e-08
1.27615e-07
6.75106e-08
9.78455e-08
2.00091e-08
3.18534e-08
2.8156e-10
5.93864e-09
2.3133e-10
8.42816e-10
1.91929e-10
1.92672e-10
2.27619e-11
1.62233e-11
1.42149e-12
1.36466e-12
1.34323e-13
6.02865e-12
5.05076e-14
1.68562e-11
0
1.71299e-11
0
3.32056e-12
0
9.93187e-14
-2.07441e-14
1.05575e-14
-3.1879e-15
8.71134e-16
-3.75689e-16
1.00272e-16
-4.17696e-17
7.31044e-18
-3.99703e-18
3.81286e-19
-3.10656e-19
1.80575e-20
-2.01643e-20
8.2971e-22
-1.10004e-21
-7.89794e-23
2.89935e-23
6.94427e-10
4.64312e-10
1.28475e-08
4.79744e-09
3.06616e-08
1.30554e-08
1.85568e-08
3.25208e-09
4.81396e-09
1.82947e-10
8.32007e-10
9.92816e-11
1.23413e-10
4.66967e-11
1.70658e-11
7.53227e-12
2.35238e-12
6.6578e-13
1.69986e-13
7.05498e-14
7.11986e-13
0
1.25956e-12
0
1.09593e-12
0
1.94683e-13
0
8.06866e-15
-4.33437e-16
1.00196e-15
-1.38817e-16
1.13056e-16
-2.22616e-17
8.41676e-18
-2.54413e-18
5.16098e-19
-2.29775e-19
2.77172e-20
-1.71263e-20
1.31336e-21
-1.07418e-21
6.50791e-23
-5.59745e-23
-1.00121e-23
2.3262e-23
2.04275e-10
8.23595e-11
2.96967e-09
8.47657e-10
6.08938e-09
2.24849e-09
3.1117e-09
5.0048e-10
7.56781e-10
5.96928e-11
1.28504e-10
2.32445e-11
2.00007e-11
8.55346e-12
2.90309e-12
1.68744e-12
4.17221e-13
1.78129e-13
2.17952e-14
2.99396e-14
7.32534e-14
4.0238e-15
9.15981e-14
2.04453e-16
6.53132e-14
2.03184e-17
1.36493e-14
2.14542e-16
1.19265e-15
1.28543e-17
1.00481e-16
-5.94207e-18
7.77175e-18
-1.10048e-18
5.20518e-19
-1.24004e-19
3.0616e-20
-1.07735e-20
1.57132e-21
-7.69071e-22
6.93942e-23
-4.62261e-23
6.14262e-24
-2.29464e-24
-1.78662e-24
5.60196e-24
3.76463e-11
1.26257e-11
5.39481e-10
1.31429e-10
1.01954e-09
3.55274e-10
4.54789e-10
7.29493e-11
1.07723e-10
1.38276e-11
1.82585e-11
4.3611e-12
2.81763e-12
1.29578e-12
4.10662e-13
2.57269e-13
6.74555e-14
3.70021e-14
1.3456e-14
7.18062e-15
8.09965e-15
1.52402e-15
6.21861e-15
5.48996e-16
4.17987e-15
2.27706e-16
1.08794e-15
5.2411e-17
9.5352e-17
3.85502e-18
6.44842e-18
-1.08767e-19
4.37919e-19
-4.19721e-20
2.71421e-20
-5.05287e-21
1.49132e-21
-4.29495e-22
7.20732e-23
-2.94215e-23
3.01438e-24
-1.68106e-24
6.48492e-25
-9.71466e-26
-3.46341e-25
1.27968e-24
5.5991e-12
1.76118e-12
8.38705e-11
1.88979e-11
1.48992e-10
5.1137e-11
5.89801e-11
1.00286e-11
1.38731e-11
2.53703e-12
2.40043e-12
6.95625e-13
3.70402e-13
1.58644e-13
6.95152e-14
2.89034e-14
1.30196e-14
8.55251e-15
3.60236e-15
1.80432e-15
1.5496e-15
4.36763e-16
9.24753e-16
1.58208e-16
3.86958e-16
4.37191e-17
6.22672e-17
5.91107e-18
5.01855e-18
3.92289e-19
3.37942e-19
8.14338e-21
2.15836e-20
-1.20209e-21
1.22597e-21
-1.80807e-22
6.21429e-23
-1.54439e-23
2.79286e-24
-1.01593e-24
1.2125e-25
-5.42182e-26
5.95712e-26
-6.38002e-27
-7.56358e-26
3.18589e-25
7.37847e-13
2.34473e-13
1.15499e-11
2.5061e-12
1.95255e-11
6.77425e-12
6.93261e-12
1.31366e-12
1.6664e-12
3.93271e-13
3.21185e-13
8.66176e-14
6.44308e-14
1.87879e-14
1.32696e-14
8.27682e-15
2.78727e-15
1.9543e-15
5.99508e-16
3.05048e-16
2.25628e-16
6.8069e-17
9.94733e-17
1.94762e-17
2.55535e-17
3.82929e-18
3.21405e-18
4.47706e-19
2.59916e-19
3.20439e-20
1.69602e-20
1.21907e-21
9.8207e-22
-1.1642e-23
5.06271e-23
-5.47296e-24
2.33915e-24
-4.97408e-25
9.58903e-26
-3.15126e-26
6.31334e-27
-1.5212e-27
4.31796e-27
-8.10764e-28
-1.87464e-26
7.87144e-26
8.43787e-14
3.415e-14
1.43676e-12
3.12374e-13
2.33173e-12
8.37106e-13
7.62996e-13
1.62836e-13
2.00036e-13
5.17603e-14
4.80119e-14
1.27161e-14
1.06477e-14
7.12081e-15
2.16987e-15
1.81378e-15
3.35522e-16
2.59434e-16
6.5659e-17
3.38242e-17
2.17832e-17
6.72373e-18
7.26904e-18
1.56742e-18
1.45778e-18
2.76526e-19
1.67248e-19
3.15674e-20
1.31505e-20
2.30316e-21
8.04435e-22
1.02555e-22
4.09919e-23
1.65191e-24
1.90494e-24
-1.26801e-25
7.90326e-26
-1.41542e-26
2.87186e-27
-8.68243e-28
4.65547e-28
-4.19685e-29
8.03696e-28
-1.81924e-28
-5.24148e-27
2.01655e-26
7.50031e-15
6.19663e-15
1.61873e-13
4.47428e-14
2.57908e-13
1.01331e-13
8.26004e-14
2.63646e-14
2.4902e-14
7.76057e-15
6.2675e-15
5.05669e-15
1.42482e-15
1.36166e-15
2.21555e-16
2.14315e-16
3.04614e-17
2.61061e-17
5.61659e-18
3.26257e-18
1.5985e-18
5.58179e-19
4.53265e-19
1.16867e-19
7.98202e-20
1.93078e-20
8.39907e-21
2.08298e-21
6.20854e-22
1.46962e-22
3.53537e-23
6.75906e-24
1.61872e-24
1.68926e-25
6.52224e-26
-1.04196e-27
2.36882e-27
-3.30452e-28
7.89872e-29
-1.99411e-29
3.61812e-29
-2.39387e-30
2.53955e-28
-5.61132e-29
-1.43827e-27
5.46168e-27
4.38469e-16
9.14378e-16
1.67146e-14
1.22772e-14
2.68767e-14
1.24509e-14
8.39601e-15
6.50279e-15
2.62329e-15
2.67663e-15
7.31251e-16
8.01373e-16
1.28507e-16
1.44951e-16
1.86172e-17
2.04205e-17
2.50511e-18
2.46832e-18
4.20889e-19
2.91813e-19
1.0437e-19
4.49153e-20
2.60164e-20
8.43742e-21
4.08834e-21
1.26727e-21
3.93074e-22
1.26531e-22
2.69142e-23
8.44934e-24
1.40921e-24
3.80416e-25
5.74467e-26
1.06073e-26
1.93426e-27
9.72728e-29
5.96229e-29