/*--------------------------------*- C++ -*----------------------------------*\
  =========                 |
  \\      /  F ield         | OpenFOAM: The Open Source CFD Toolbox
   \\    /   O peration     | Website:  https://openfoam.org
    \\  /    A nd           | Version:  13
     \\/     M anipulation  |
\*---------------------------------------------------------------------------*/
FoamFile
{
    format      ascii;
    class       volScalarField;
    location    "0.95";
    object      alpha.water;
}
// * * * * * * * * * * * * * * * * * * * * * * * * * * * * * * * * * * * * * //

dimensions      [];

internalField   nonuniform List<scalar> 
2268
(
1
1
1
1
1
1
1
1
1
1
1
1
1
0.999733
0.984423
0.96624
0.991129
0.991129
0.986644
0.979388
0.989658
0.998748
0.999971
1
1
1
1
1
1
1
1
1
1
1
1
0.999997
0.995715
0.956922
0.954799
0.958244
0.971849
0.966747
0.966704
0.967014
0.998663
0.999971
1
1
1
1
1
1
1
1
1
1
1
1
0.999996
0.999586
0.979415
0.954825
0.954799
0.955139
0.977898
0.986186
0.995208
0.999955
0.99997
1
1
1
1
1
1
1
1
1
1
1
1
1
0.999997
0.999507
0.991901
0.986504
0.996162
1
1
1
1
0.999993
1
1
1
0.999999
0.999996
0.999999
1
0.999999
1
1
1
1
1
0.999999
0.999996
0.999997
1
1
1
1
1
1
1
1
1
1
1
0.999986
0.999919
0.999862
0.999969
1
1
1
1
1
1
1
0.999999
0.999997
1
0.999999
0.999996
0.999997
0.999999
0.999991
1
1
1
1
1
0.999172
0.998657
0.999911
1
1
1
1
1
0.999998
0.999994
0.999997
0.999995
0.999982
0.999999
0.999998
0.999943
0.999968
0.999969
1
1
1
1
1
0.998815
0.998488
0.999657
1
1
1
1
1
0.999963
0.999874
0.999834
0.985033
0.923105
0.887432
0.970051
0.999943
0.999836
0.999948
0.985401
0.987198
0.990531
0.992811
0.992848
0.99284
0.989146
0.985544
0.830735
0.70868
0.708658
0.709976
0.72597
0.748051
0.716515
0.716783
0.763935
0.852483
0.852658
0.990249
0.990258
0.965866
0.913714
0.992231
0.992848
0.99284
0.951662
0.745456
0.708671
0.795275
0.814591
0.814809
0.814591
0.793817
0.716735
0.847502
0.852634
0.736346
0.990255
0.961681
0.754212
0.746234
0.992169
0.99063
0.98468
0.86275
0.745993
0.807849
0.814177
0.814809
0.814591
0.814211
0.813681
0.796017
0.847232
0.829641
0.639564
0.989875
0.880277
0.743314
0.743297
0.983638
0.976307
0.953491
0.838184
0.806951
0.810904
0.813302
0.714656
0.647278
0.81054
0.813532
0.813156
0.787862
0.639376
0.63947
0.988206
0.902156
0.743289
0.787801
0.965015
0.967449
0.829064
0.707779
0.782548
0.805278
0.408207
0.0802007
0.051805
0.37518
0.810234
0.81252
0.639376
0.639376
0.652824
0.986384
0.799131
0.744791
0.985011
0.966205
0.913995
0.639343
0.570653
0.630486
0.259624
0.00610018
0.00249334
0.00388493
0.0207515
0.438057
0.806779
0.695488
0.647391
0.732341
0.988031
0.799427
0.853168
0.994043
0.911769
0.806409
0.476791
0.448765
0.208483
0.00375094
0.00111472
0.000872083
0.00130377
0.00343719
0.0415334
0.537284
0.718317
0.726096
0.732341
0.989687
0.800195
0.935966
0.994776
0.81756
0.582274
0.200148
0.263471
0.0585553
0.00109644
0.000635643
0.000601564
0.000696447
0.00103299
0.00174692
0.0793286
0.490062
0.580284
0.570045
0.999689
0.999991
1
0.999557
0.999542
0.999984
0.999998
0.999998
0.999999
0.990508
0.944961
0.979522
0.999996
0.997551
0.911209
0.714501
0.496136
0.353434
0.31732
0.544829
0.910718
0.999797
0.999452
0.704323
0.899623
0.99439
0.978507
0.980738
0.999979
0.911198
0.645023
0.508935
0.465759
0.909529
0.978982
0.975652
0.605547
0.19226
0.111809
0.111721
0.111808
0.113708
0.176101
0.780078
0.985822
0.953047
0.415057
0.415376
0.789469
0.979977
0.980538
0.837481
0.323044
0.0585444
0.116281
0.490205
0.62781
0.390147
0.203265
0.153469
0.129931
0.111985
0.112896
0.115656
0.376943
0.609546
0.600425
0.454461
0.615285
0.472172
0.780752
0.831111
0.803969
0.340169
0.101755
0.0337438
0.0197898
0.0243005
0.0950946
0.0506016
0.0355719
0.0329754
0.0930872
0.347079
0.383792
0.384496
0.383387
0.381732
0.254173
0.0749258
0.0867623
0.505166
0.709265
0.693183
0.191779
0.0726926
0.0848433
0.0848388
0.0222534
0.0180164
0.0129381
0.00832412
0.00616307
0.00607604
0.00215268
0.0382361
0.124425
0.175657
0.128095
0.0769682
0.0734238
0.0719814
0.0711539
0.0806101
0.61922
0.697774
0.318557
0.00307041
0.0669133
0.086587
0.0863422
0.0861629
0.0703952
0.0364251
0.00680886
0.0025282
0.00219534
0.00165826
0.00109961
0.00159789
0.00421914
0.0313691
0.113229
0.115178
0.0812201
0.0590627
0.0982294
0.625365
0.636282
0.157022
0.000719081
0.00304368
0.00321614
0.0148651
0.0648976
0.0763048
0.0763063
0.0660542
0.0170394
0.000180387
0.000120866
0.000247076
0.000405891
0.0193127
0.109843
0.115319
0.11605
0.115123
0.0445342
0.0129984
0.229256
0.605755
0.14438
0.00019749
4.96013e-05
3.8217e-05
0.000141146
0.000446869
0.00946799
0.046497
0.0629666
0.0132581
6.24792e-05
2.85797e-05
9.27777e-05
3.45603e-05
4.89548e-05
0.00946295
0.0619939
0.0727236
0.0139038
0.000258896
0.000944523
0.00663804
0.586465
0.128257
4.87457e-05
1.16675e-05
9.90593e-06
2.76217e-05
0.000185206
0.00228926
0.00514116
0.00762701
0.00497556
2.5248e-05
6.01791e-06
2.32192e-06
2.54664e-05
4.31554e-05
4.31554e-05
6.13152e-05
7.95107e-05
0.000100529
0.000129713
0.000153325
0.000790085
0.565773
0.072602
1.13891e-05
3.33804e-06
2.36658e-06
4.86355e-06
7.99539e-05
0.000402387
0.000597957
0.000313805
3.35941e-05
1.21164e-05
2.63564e-06
2.33417e-07
4.6884e-07
3.88084e-05
0.000143749
0.000204779
0.000145117
0.000162201
0.000134222
8.56589e-05
0.000202
0.560998
0.00803269
3.25344e-06
1.03208e-06
5.51224e-07
8.23511e-07
3.14915e-06
8.3524e-05
0.000260993
0.000245914
1.2861e-05
8.19164e-07
2.79737e-07
3.58192e-08
3.55655e-08
7.03612e-08
5.0384e-05
0.000212458
0.000257534
0.000257534
0.00023618
6.05825e-05
1.41108e-05
0.5585
0.000867254
1.0176e-06
3.28281e-07
1.36829e-07
1.59118e-07
8.79654e-07
6.96955e-06
1.43656e-05
2.23191e-05
1.88689e-05
4.34608e-06
3.28911e-08
3.23089e-08
3.29067e-08
3.30241e-08
3.98658e-08
8.41406e-08
0.000173519
0.000257534
0.000240401
6.1327e-05
4.97432e-06
0.534749
2.61265e-06
3.25214e-07
1.10371e-07
4.52201e-08
4.78811e-08
1.5782e-07
4.37032e-07
4.51497e-07
1.8261e-07
6.88707e-07
9.05523e-07
8.59187e-08
3.25366e-08
3.19247e-08
3.30365e-08
1.74004e-08
2.08614e-09
1.83317e-09
3.7e-05
5.40505e-05
5.88466e-08
4.18713e-06
0.312181
9.74229e-07
1.20416e-07
4.47389e-08
2.60873e-08
2.76179e-08
3.61049e-08
4.8318e-08
6.33889e-08
8.65911e-08
6.31e-08
5.20249e-08
4.91777e-08
4.46197e-08
5.55433e-08
5.66126e-08
2.12369e-08
1.68231e-09
1.59238e-09
1.6822e-09
1.9421e-09
4.87335e-09
1.66891e-06
0.183116
3.73796e-07
4.68429e-08
2.62215e-08
2.31702e-08
2.36076e-08
2.86487e-08
3.60582e-08
4.76538e-08
7.58999e-08
9.50338e-08
6.05191e-08
5.15275e-08
4.61997e-08
3.88114e-08
3.7773e-08
3.16559e-08
5.20934e-09
1.50996e-09
1.88546e-09
2.32956e-09
1.24738e-08
1.3866e-08
0.289754
1.519e-07
2.75852e-08
2.35186e-08
2.36074e-08
2.29363e-08
2.36669e-08
2.99886e-08
4.4935e-08
7.72772e-08
9.50387e-08
8.18755e-08
9.37161e-08
5.78373e-08
1.29914e-08
2.92728e-09
1.4319e-09
1.33762e-09
1.48929e-09
3.51857e-09
4.97221e-09
4.91109e-08
6.01505e-08
0.326796
9.40204e-08
4.37054e-08
2.76413e-08
4.29222e-08
5.84432e-08
6.44595e-07
1.66868e-05
7.85124e-05
1.07372e-05
3.79074e-06
6.07622e-07
6.94065e-07
4.23617e-07
9.12901e-08
1.01722e-08
1.23501e-09
5.3144e-10
4.51354e-10
1.14261e-09
1.51099e-09
6.44123e-09
5.4951e-08
0.327219
2.69417e-05
9.09822e-08
4.64284e-08
8.28102e-07
1.23145e-06
2.40418e-05
0.000333435
0.000339769
0.000336275
0.000100733
3.19145e-06
3.35314e-06
2.28561e-06
4.73944e-07
5.40739e-08
5.03131e-09
5.40291e-10
2.44418e-10
2.2125e-10
2.66695e-10
3.52997e-11
3.63096e-11
0.327219
0.000120044
1.25911e-07
2.70452e-07
1.03833e-06
3.3691e-05
0.000307731
0.000341519
0.000339769
0.000339769
0.000336275
0.000137201
6.59166e-05
8.67995e-06
2.03347e-06
3.2416e-07
2.44476e-08
1.72449e-09
2.10923e-10
1.48517e-10
5.18589e-11
3.4976e-11
4.78061e-11
0.124747
3.33286e-07
1.45236e-07
1.77738e-07
7.11833e-07
0.000105048
0.00034049
0.000343269
0.000308549
2.27894e-05
3.61041e-05
0.000394539
0.000452027
0.000229699
9.77693e-06
3.57853e-06
6.24772e-07
5.71048e-08
4.58644e-09
4.10431e-10
8.25826e-11
2.52631e-11
4.18302e-11
0.00301791
4.41898e-05
1.9148e-07
1.96642e-07
2.99568e-06
0.000144079
0.000343049
0.000342675
0.000154951
2.17368e-05
2.18231e-05
3.64639e-05
0.000543931
0.00055858
0.000257324
2.86816e-05
2.86527e-06
2.57238e-07
1.80073e-08
1.03428e-09
7.515e-11
1.02717e-11
1.62577e-12
0.0703668
0.000531606
4.19994e-07
5.12458e-07
3.85386e-06
7.00959e-05
0.000264281
0.000266391
5.63382e-05
2.27371e-05
2.17156e-05
2.31686e-05
0.000322286
0.000583645
0.000551961
9.24149e-05
3.05843e-06
3.20721e-07
2.54578e-08
1.70504e-09
9.94999e-11
8.26192e-12
1.0784e-12
0.105891
0.00214223
1.34645e-06
8.13614e-07
1.61597e-06
3.90184e-06
1.96436e-05
3.2798e-05
3.26743e-05
2.73892e-05
2.31827e-05
2.81694e-05
0.000434592
0.000609105
0.000583645
0.000147547
1.86028e-06
1.74577e-07
1.3827e-08
1.12362e-09
7.79098e-11
5.8438e-12
6.08993e-13
0.106574
0.00343854
5.11772e-06
2.80703e-06
2.49706e-06
2.78489e-06
6.67816e-06
9.44895e-05
0.000131276
4.52886e-05
2.91741e-05
0.000261392
0.000610633
0.000617749
0.00058922
6.91533e-05
1.86212e-06
1.85459e-07
1.45825e-08
8.9453e-10
4.45285e-11
2.13123e-12
2.70268e-13
0.106223
0.0256551
8.23513e-05
9.37328e-06
3.03205e-06
5.1623e-06
0.000101823
0.000208099
0.000105056
5.41177e-05
0.000342973
0.000610633
0.000618193
0.000614558
0.000346279
1.3693e-05
1.13982e-06
1.24342e-07
1.09915e-08
7.03521e-10
3.38277e-11
1.50635e-12
1.06381e-13
0.0529201
0.0470513
0.0130121
0.000774687
7.18924e-05
0.000382747
0.000276515
0.000124046
9.12082e-05
6.46983e-05
0.000582155
0.000617993
0.000617467
0.000564326
6.86666e-05
1.49301e-06
2.26793e-07
2.65702e-08
2.56556e-09
2.08903e-10
1.41626e-11
8.22763e-13
3.66175e-14
0.00135593
0.0301165
0.0309285
0.0175394
0.0105333
0.00179158
0.000302431
9.51022e-05
3.55517e-05
1.43927e-05
0.00042376
0.000600143
0.000491953
7.15454e-05
9.16915e-07
1.30307e-07
2.02443e-08
2.37327e-09
2.2238e-10
1.59545e-11
9.66907e-13
5.22252e-14
2.94832e-15
0.00035029
0.00571629
0.014315
0.0165606
0.0100276
0.00167785
0.000156992
3.55665e-05
6.61327e-06
6.98072e-06
0.000105782
0.000160277
6.87735e-05
4.2363e-06
1.01463e-07
1.52053e-08
1.65137e-09
1.80061e-10
1.48968e-11
9.09662e-13
5.38886e-14
3.00531e-15
1.88963e-16
7.51102e-05
0.000339508
0.00131936
0.00181091
0.00159355
0.000589274
3.98965e-05
6.64343e-06
9.89243e-07
1.46002e-07
5.28102e-08
1.45427e-06
2.2468e-06
1.10604e-06
3.05755e-08
8.98343e-10
1.01535e-10
9.99231e-12
7.99708e-13
8.71571e-14
4.12003e-15
1.70826e-16
1.33412e-17
1.5145e-05
7.40675e-05
0.000305271
0.000243446
0.000127119
4.30094e-05
8.55818e-06
1.00268e-06
1.56735e-07
3.30385e-08
3.98433e-08
1.30905e-07
1.5873e-07
7.99244e-08
6.03609e-09
6.42607e-11
7.35785e-12
1.93585e-12
2.58533e-13
1.45501e-14
5.02073e-16
1.21732e-17
1.26697e-18
2.77883e-06
1.56071e-05
7.00942e-05
5.37682e-05
2.44123e-05
6.90826e-06
1.37656e-06
1.96088e-07
2.7066e-08
5.20206e-09
4.88822e-09
1.1742e-08
1.14531e-08
5.10692e-09
5.18548e-10
2.9078e-11
3.69688e-12
3.34501e-13
2.03707e-14
1.01885e-15
4.15506e-17
1.06273e-18
3.59107e-19
4.84453e-07
3.02175e-06
1.41563e-05
1.01344e-05
4.15355e-06
1.14057e-06
2.32055e-07
3.60793e-08
4.85451e-09
8.17473e-10
4.81733e-10
8.9051e-10
7.91133e-10
3.30745e-10
5.15507e-11
4.56675e-12
3.46878e-13
2.2716e-14
1.29073e-15
6.27883e-17
2.51558e-18
5.93337e-20
1.0021e-19
8.07565e-08
5.29561e-07
2.52426e-06
1.68402e-06
6.37997e-07
1.70953e-07
3.51514e-08
5.89735e-09
8.12232e-10
1.46058e-10
6.38148e-11
6.51858e-11
5.49038e-11
2.55194e-11
4.47428e-12
3.5873e-13
2.2756e-14
1.33888e-15
7.0742e-17
3.24397e-18
1.23843e-19
2.76095e-21
2.43579e-20
1.24105e-08
8.41862e-08
4.11066e-07
2.50929e-07
8.91757e-08
2.33917e-08
4.82108e-09
8.28862e-10
1.45935e-10
3.82387e-11
1.99418e-11
1.45759e-11
7.85632e-12
2.13942e-12
2.69223e-13
2.07837e-14
1.30666e-15
7.12897e-17
3.44324e-18
1.46084e-19
5.10534e-21
4.19593e-22
5.59015e-21
1.75232e-09
1.29081e-08
6.05771e-08
3.39805e-08
1.14642e-08
2.95978e-09
6.10731e-10
1.20517e-10
3.19831e-11
9.1882e-12
4.12597e-12
2.12274e-12
7.28102e-13
1.36148e-13
1.48867e-14
1.15304e-15
7.023e-17
3.51258e-18
1.52863e-19
5.89384e-21
1.71804e-22
8.32515e-23
1.41245e-21
2.5911e-10
1.82674e-09
8.16334e-09
4.22983e-09
1.37112e-09
3.50031e-10
8.33683e-11
2.51822e-11
5.80257e-12
1.27052e-12
4.82867e-13
1.87839e-13
4.92704e-14
7.8832e-15
8.14179e-16
6.08049e-17
3.50085e-18
1.60277e-19
6.22393e-21
2.13432e-22
4.28499e-24
1.75558e-23
4.02877e-22
4.83661e-11
2.54016e-10
1.01152e-09
4.85384e-10
1.59834e-10
4.73198e-11
1.73365e-11
4.16744e-12
6.49341e-13
1.20389e-13
3.90561e-14
1.30719e-14
3.04473e-15
4.43023e-16
4.26201e-17
2.99144e-18
1.60792e-19
6.74649e-21
2.30263e-22
6.7557e-24
2.3779e-25
5.12429e-24
1.27308e-22
1.00519e-11
3.84985e-11
1.28071e-10
6.12546e-11
2.154e-11
9.81872e-12
2.6402e-12
4.31191e-13
5.97099e-14
1.00968e-14
2.83024e-15
8.51994e-16
1.7914e-16
2.36403e-17
2.09663e-18
1.36384e-19
6.74765e-21
2.56057e-22
7.59415e-24
1.73927e-25
6.67661e-26
1.85458e-24
3.81859e-23
1.43831e-12
1.79228e-11
1.79131e-11
1.17572e-11
4.51948e-12
1.32091e-12
2.53228e-13
3.8522e-14
5.18555e-15
8.08483e-16
1.99396e-16
5.30098e-17
9.92914e-18
1.1854e-18
9.62902e-20
5.72673e-21
2.56307e-22
8.65161e-24
2.20382e-25
3.69965e-27
2.01416e-26
5.66938e-25
8.93849e-24
1.43603e-13
5.2281e-12
3.54973e-12
1.74641e-12
5.37206e-13
1.20212e-13
2.20771e-14
3.26777e-15
4.20514e-16
6.11879e-17
1.34014e-17
3.11898e-18
5.16992e-19
5.55381e-20
4.08749e-21
2.18657e-22
8.67099e-24
2.54071e-25
5.36077e-27
3.2725e-28
4.89514e-27
1.1498e-25
1.41111e-24
1.27078e-14
6.50709e-13
4.01509e-13
1.59726e-13
4.45685e-14
1.02582e-14
1.84386e-15
2.62059e-16
3.18579e-17
4.29978e-18
8.5175e-19
1.7561e-19
2.57203e-20
2.46732e-21
1.62668e-22
7.71701e-24
2.6671e-25
6.65485e-27
1.10672e-28
4.48856e-29
7.28649e-28
1.37193e-26
1.44141e-25
1.25131e-14
3.3965e-14
6.33899e-14
1.72725e-14
3.84125e-15
6.82807e-16
9.72226e-17
1.16797e-17
1.43415e-18
2.00864e-19
3.25757e-20
5.30759e-21
6.85718e-22
5.9548e-23
3.50884e-24
1.45888e-25
4.30294e-27
8.78542e-29
4.61117e-30
4.29033e-30
4.14492e-29
6.74435e-28
5.97055e-27
0.995419
0.984728
0.971169
0.979461
0.971997
0.955878
0.907824
0.753497
0.972212
0.967863
0.786329
0.642984
0.97136
0.969309
0.93789
0.847989
0.969291
0.96408
0.951695
0.935073
0.964039
0.955564
0.942837
0.917853
0.892816
0.944092
0.926176
0.904194
0.446069
0.870215
0.906854
0.886879
0.00811361
0.311211
0.771697
0.858083
0.000718794
0.00272862
0.0535536
0.464498
9.75377e-05
0.000175707
0.000747373
0.00267203
1.06928e-05
2.16266e-05
3.15011e-05
0.00038776
1.69809e-05
5.04419e-06
5.53809e-06
1.23831e-05
1.46177e-05
4.99116e-06
3.74946e-07
5.20983e-07
1.14101e-08
5.27721e-06
2.87938e-07
3.01026e-07
7.75175e-09
8.3482e-10
2.61208e-07
8.06631e-07
7.04138e-09
1.39302e-10
1.0885e-10
2.61418e-09
3.86326e-11
1.73518e-10
1.01655e-10
9.10645e-11
1.13219e-10
1.91461e-10
2.00454e-10
1.61432e-10
5.09665e-11
3.24353e-11
7.18157e-11
2.18537e-11
8.22979e-13
7.01629e-13
5.47351e-13
8.63693e-13
8.14739e-14
8.65873e-14
1.01068e-13
1.13294e-13
2.6566e-14
2.34117e-14
2.18927e-14
2.2736e-14
1.23719e-14
6.50848e-15
4.13955e-15
4.14818e-15
7.67403e-15
2.15833e-15
8.07238e-16
8.3255e-16
3.08519e-15
4.9953e-16
1.51804e-16
1.96367e-16
2.31524e-16
6.71771e-17
5.40717e-17
9.18814e-17
1.62068e-17
1.66278e-17
3.17478e-17
6.44567e-17
2.83198e-18
8.32274e-18
1.97175e-17
4.13738e-17
1.74244e-18
4.14464e-18
1.00593e-17
1.9422e-17
8.22612e-19
1.64201e-18
3.8546e-18
7.0938e-18
2.43131e-19
5.12394e-19
1.18341e-18
2.1078e-18
6.60656e-20
1.40086e-19
3.17863e-19
5.55543e-19
1.72482e-20
3.60997e-20
8.04935e-20
1.38633e-19
4.48211e-21
9.30992e-21
2.04935e-20
3.48254e-20
1.26937e-21
2.61896e-21
5.59637e-21
9.28449e-21
3.8925e-22
7.81576e-22
1.53318e-21
2.62775e-21
1.09927e-22
2.03403e-22
3.81357e-22
9.93918e-22
2.3192e-23
3.98908e-23
1.09439e-22
6.69484e-22
3.28294e-24
6.80876e-24
4.66687e-23
4.88755e-22
3.29659e-25
1.32145e-24
1.85374e-23
2.05319e-22
1.39064e-26
1.71844e-25
2.75408e-24
2.64658e-23
0.989687
0.961609
0.992224
0.994776
0.896894
0.320331
0.10679
0.140599
0.0167959
0.000637133
0.000585744
0.000589462
0.000600037
0.000641839
0.000719141
0.00110152
0.0019366
0.0264574
0.0397962
0.918215
0.971823
0.91992
0.951878
0.885326
0.0820073
0.107812
0.0813333
0.000691777
0.000586099
0.000579616
0.000584736
0.000589741
0.000605715
0.000655253
0.0007233
0.000944956
0.0019476
0.0060733
0.642984
0.744246
0.829919
0.950518
0.60427
0.0679002
0.105517
0.0477805
0.000599368
0.000575254
0.000574678
0.00057964
0.000594324
0.00117835
0.000720802
0.000754086
0.00223703
0.0264244
0.0228081
0.677885
0.597554
0.753084
0.565482
0.102568
0.0702304
0.0782628
0.0036767
0.00057543
0.00056926
0.000570236
0.000710098
0.0028983
0.00229432
0.000755144
0.000838047
0.00100725
0.0967718
0.0969578
0.837127
0.295308
0.067298
0.026021
0.00894768
0.0314335
0.0260531
0.000631003
0.00056926
0.000568039
0.00056918
0.00153461
0.00502536
0.00185694
0.000837767
0.00101428
0.00641288
0.108888
0.10428
0.650254
0.0705124
0.00229866
0.00199115
0.00172476
0.00152064
0.000805515
0.00058594
0.000568039
0.000567989
0.000568039
0.00182869
0.00495627
0.00220949
0.00149453
0.00182527
0.0591181
0.120819
0.0481685
0.582269
0.0121449
0.00207408
0.00172858
0.00121945
0.000856723
0.000623558
0.000577405
0.000568041
0.000568039
0.000570445
0.000805457
0.00231527
0.00455097
0.015692
0.0466782
0.161357
0.12361
0.0306281
0.697788
0.0568376
0.0020858
0.00190784
0.00179281
0.0025261
0.00491126
0.00357707
0.00136557
0.00249225
0.00108086
0.00261062
0.0310288
0.128139
0.229713
0.276077
0.243891
0.0379878
0.00663052
0.820345
0.402545
0.002216
0.00215764
0.00203829
0.00356883
0.00500728
0.00502212
0.00471805
0.00257531
0.0220918
0.130708
0.28204
0.286948
0.286948
0.286948
0.059184
8.1156e-06
0.000101993
0.69075
0.689156
0.533355
0.00775616
0.00220924
0.00232799
0.00495166
0.00408066
0.0032826
0.0253588
0.217648
0.283619
0.284779
0.286444
0.285962
0.0978875
2.11967e-07
3.28086e-07
5.27631e-06
0.216971
0.689574
0.689574
0.577133
0.00764586
0.00252195
0.00284922
0.00299033
0.00307299
0.186921
0.258138
0.263179
0.241694
0.183441
0.0354501
1.21257e-07
1.74562e-07
3.09978e-07
4.18408e-07
0.000628873
0.176697
0.68261
0.703544
0.573049
0.00737073
0.00299026
0.00307292
0.0860918
0.195404
0.146967
0.00449236
6.79238e-08
6.54269e-08
6.28925e-08
8.44931e-08
1.52989e-07
3.85672e-07
4.20454e-07
2.24402e-05
0.000320823
0.108942
0.663512
0.705784
0.486389
0.00355032
0.00310863
0.314278
0.170042
0.000268138
3.84955e-06
7.12071e-08
6.29034e-08
2.70297e-07
1.21257e-07
2.12753e-07
7.01966e-07
8.01291e-07
1.05396e-06
5.69188e-06
0.000117212
0.0996689
0.623326
0.628104
0.374388
0.426268
0.357577
0.0235935
9.71351e-05
5.74106e-07
3.65602e-08
7.11682e-08
1.12468e-06
1.49526e-05
2.48713e-05
2.33769e-06
9.69805e-06
2.91129e-08
3.59471e-08
8.05616e-07
1.8508e-05
0.0655349
0.534963
0.529909
0.480401
0.0544672
4.81626e-05
1.30002e-06
7.00512e-07
7.83626e-10
6.47513e-08
2.60658e-07
4.17061e-05
0.000138447
5.00461e-05
1.88412e-05
1.27446e-08
3.39571e-09
2.5548e-08
3.02017e-08
5.92881e-09
0.0131291
0.207025
0.0401129
1.32572e-05
2.03527e-07
5.79488e-08
7.66658e-10
4.87877e-10
5.78086e-08
2.04052e-07
3.88815e-05
0.000138358
0.000109207
0.000192255
2.57909e-09
3.96945e-09
6.40194e-10
6.68776e-10
7.19347e-10
5.77152e-10
5.0118e-10
4.8835e-10
4.76719e-10
4.66057e-10
4.76065e-10
4.8051e-10
4.83039e-10
4.32193e-09
6.63982e-08
1.24152e-05
0.000138692
6.33766e-05
0.000326291
8.89398e-11
9.10645e-11
6.26037e-10
1.49323e-09
1.73718e-08
2.91119e-08
3.25517e-09
5.02807e-10
4.95546e-10
4.63233e-10
4.72417e-10
4.76065e-10
5.20044e-10
5.43068e-10
5.73163e-10
1.87877e-06
0.000129042
6.30153e-05
0.000327142
8.86525e-11
1.56404e-10
7.57665e-10
1.46268e-09
4.88609e-10
5.61258e-10
4.71806e-10
8.31382e-10
7.57391e-10
4.5057e-10
4.50052e-10
4.89827e-10
5.51545e-10
5.73163e-10
5.7651e-10
5.8989e-10
3.03324e-05
0.000147902
0.000324224
3.98163e-11
5.29636e-11
9.43741e-11
4.96571e-10
4.83617e-10
2.10287e-10
1.53882e-10
1.67576e-10
1.61725e-10
1.63956e-10
2.38625e-10
1.14157e-09
2.28058e-09
1.85793e-09
1.07372e-09
5.92815e-10
1.09144e-05
0.000499687
9.86903e-05
1.67464e-12
3.41221e-12
3.33817e-12
2.54182e-12
4.34043e-11
1.06767e-10
1.4261e-10
1.37705e-10
1.38237e-10
1.65112e-10
3.53691e-09
2.37498e-07
3.58405e-07
1.06381e-07
2.98382e-09
6.04617e-10
2.20364e-05
0.000500617
1.9822e-05
1.52797e-13
3.4776e-13
1.00155e-12
2.53504e-12
8.8164e-12
5.94494e-11
1.16824e-10
1.23378e-10
1.21676e-10
6.177e-09
3.55996e-07
6.55487e-07
6.55487e-07
5.26045e-07
2.39986e-08
7.16962e-10
1.95914e-05
0.000498641
1.93337e-05
3.30635e-14
9.89507e-14
4.23788e-13
2.34673e-12
2.21929e-11
9.59179e-11
1.20669e-10
1.18229e-10
1.19027e-10
3.86779e-07
6.47538e-07
6.523e-07
6.56718e-07
6.523e-07
6.57376e-08
1.38801e-09
1.02378e-05
0.000176564
1.21536e-05
5.49831e-15
2.08165e-14
1.95641e-13
1.86878e-12
3.32966e-11
1.03768e-10
1.06664e-10
1.02995e-10
1.79941e-07
6.34096e-07
6.45069e-07
5.62179e-07
4.82527e-07
2.90138e-07
1.11811e-08
2.18996e-09
1.41097e-05
1.49282e-06
1.40158e-06
1.48816e-15
1.39071e-14
1.88974e-13
3.05013e-12
4.36758e-11
1.04681e-10
9.89027e-11
9.89041e-11
6.05801e-07
6.24214e-07
3.63847e-07
1.31547e-07
1.31621e-07
1.36656e-07
1.80778e-07
2.14023e-09
2.05358e-05
3.69841e-06
5.75328e-07
6.22332e-16
1.28296e-14
2.48017e-13
3.99008e-12
4.68748e-11
1.02963e-10
9.89041e-11
3.93947e-09
5.99982e-07
2.54014e-07
1.35731e-07
1.32612e-07
1.3084e-07
4.30188e-07
4.24396e-07
2.15011e-09
4.1699e-05
2.05513e-05
3.68123e-07
4.36e-16
1.62899e-14
3.44382e-13
4.39067e-12
5.05978e-11
9.90024e-11
9.89027e-11
4.21493e-09
5.1354e-07
5.76809e-07
1.43675e-07
1.35732e-07
1.86536e-07
5.00141e-07
2.75503e-07
2.54815e-07
4.29335e-05
2.1832e-05
5.38649e-08
3.53478e-16
2.15856e-14
4.41851e-13
4.42624e-12
4.97249e-11
1.06982e-10
9.93738e-11
4.65344e-10
8.10448e-08
2.0712e-06
1.48041e-06
2.01888e-07
1.08203e-06
5.13067e-06
8.68641e-06
8.84536e-06
2.76641e-05
1.74736e-06
1.62341e-10
2.90576e-16
2.49989e-14
4.94803e-13
3.71487e-12
3.40551e-11
1.09382e-10
1.32435e-10
1.27533e-10
1.27533e-10
2.04888e-06
1.67269e-05
1.2029e-05
5.61029e-06
3.2101e-05
3.68499e-05
3.683e-05
7.27029e-09
2.15489e-10
5.835e-11
2.4928e-16
2.62036e-14
4.94211e-13
2.29486e-12
1.77516e-11
8.74424e-11
1.48279e-10
1.49394e-10
1.29528e-10
4.17348e-07
1.77529e-05
2.2189e-05
2.19335e-05
3.5532e-05
3.60582e-05
1.07837e-05
1.76417e-09
2.69422e-11
1.08918e-11
2.13857e-16
2.39098e-14
3.11942e-13
1.17086e-12
8.9225e-12
4.306e-11
1.37485e-10
2.15442e-10
1.74789e-10
8.22854e-11
1.52874e-11
1.97739e-05
2.17794e-05
1.72366e-05
2.80356e-06
1.63594e-08
1.55332e-08
1.97976e-10
4.94901e-12
1.3391e-16
1.23692e-14
1.04964e-13
4.23641e-13
4.34329e-12
1.62985e-11
1.00227e-10
2.2798e-10
2.28074e-10
1.31637e-10
1.6941e-12
1.70604e-12
1.16364e-05
2.36408e-06
6.91738e-15
1.34545e-07
2.96272e-08
5.32678e-12
3.85967e-12
4.06251e-17
3.53833e-15
3.264e-14
1.98685e-13
2.44795e-12
6.20743e-12
6.07617e-11
2.21458e-10
2.25073e-10
1.94076e-10
6.14938e-11
1.65308e-12
1.5789e-14
6.90618e-15
6.56403e-15
2.40694e-12
2.32381e-12
8.62884e-12
3.87238e-12
8.5232e-18
7.13555e-16
1.29368e-14
1.62807e-13
1.54999e-12
2.50489e-12
2.95084e-11
1.39464e-10
1.46091e-10
1.31896e-10
9.31468e-11
3.11588e-11
4.2618e-12
2.09898e-13
5.6963e-15
4.17658e-12
1.1891e-11
1.17196e-11
2.92842e-12
1.58196e-18
2.13289e-16
1.00087e-14
1.60869e-13
8.5771e-13
9.55531e-13
9.26993e-12
3.99308e-11
3.2914e-11
4.33868e-11
5.67206e-11
3.79103e-11
8.19696e-12
4.30021e-13
2.30956e-15
9.56113e-12
1.53383e-11
9.88139e-12
9.15358e-13
8.54899e-19
1.16994e-16
8.4254e-15
1.01125e-13
3.10555e-13
2.89679e-13
1.83432e-12
6.0098e-12
5.26154e-12
1.08708e-11
1.47913e-11
1.13752e-11
3.83963e-12
2.38784e-13
1.65188e-16
9.69741e-12
1.33863e-11
3.41996e-12
1.5464e-13
7.42797e-19
6.05987e-17
4.09966e-15
2.01357e-14
6.51247e-14
6.14641e-14
4.59741e-13
1.06051e-12
9.33404e-13
1.97031e-12
2.07757e-12
1.22973e-12
2.73623e-13
1.15546e-14
2.09299e-19
5.8992e-12
5.02398e-12
8.28295e-13
1.87932e-14
5.63036e-19
2.17333e-17
1.00287e-15
2.31299e-15
8.90707e-15
8.36916e-15
1.83444e-13
2.75101e-13
1.78359e-13
1.66423e-13
1.29818e-13
5.38338e-14
6.71963e-15
8.3868e-17
6.93672e-23
1.9551e-12
1.07465e-12
1.26344e-13
1.50944e-15
2.64636e-19
4.55577e-18
8.75405e-17
1.32662e-16
9.54979e-16
7.84636e-16
2.6913e-14
2.37051e-14
1.24891e-14
3.82896e-15
1.12965e-15
2.19743e-16
1.19929e-17
6.2602e-21
6.92739e-25
4.0036e-13
1.69258e-13
1.16489e-14
5.69711e-17
7.09632e-20
5.2405e-19
1.63756e-18
3.90154e-18
5.34983e-17
3.21832e-17
7.67689e-16
5.98984e-16
1.77532e-16
8.77442e-18
1.49608e-21
2.40169e-27
3.83656e-30
5.59886e-33
7.50579e-36
4.83533e-14
1.59289e-14
5.92873e-16
4.80032e-19
9.40902e-21
2.75226e-20
4.76486e-20
3.17204e-19
8.79274e-19
3.10149e-19
6.37976e-18
2.99461e-18
2.35264e-19
7.4868e-22
4.84888e-27
3.32544e-31
1.04787e-33
2.09407e-42
9.16308e-46
2.41122e-15
6.77421e-16
1.44791e-17
7.1417e-23
2.09852e-22
1.68901e-22
2.00748e-22
1.94611e-21
4.75107e-22
7.8961e-23
4.57534e-23
5.15631e-24
2.6415e-26
1.22364e-31
1.62045e-33
5.45832e-37
1.29678e-40
3.59598e-43
-4.04409e-61
4.6948e-19
3.98682e-20
8.16511e-24
1.85528e-31
)
;

boundaryField
{
    leftWall
    {
        type            zeroGradient;
    }
    rightWall
    {
        type            zeroGradient;
    }
    lowerWall
    {
        type            zeroGradient;
    }
    atmosphere
    {
        type            inletOutlet;
        inletValue      uniform 0;
        value           nonuniform List<scalar> 
46
(
1.25131e-14
3.3965e-14
6.33899e-14
1.72725e-14
3.84125e-15
6.82807e-16
9.72226e-17
1.16797e-17
1.43415e-18
2.00864e-19
3.25757e-20
5.30759e-21
6.85718e-22
5.9548e-23
3.50884e-24
1.45888e-25
4.30294e-27
8.78542e-29
4.61117e-30
0
0
0
0
0
0
0
0
0
0
0
0
0
0
0
0
0
0
0
0
0
0
0
0
0
0
0
)
;
    }
    defaultFaces
    {
        type            empty;
    }
}


// ************************************************************************* //
