/*--------------------------------*- C++ -*----------------------------------*\
  =========                 |
  \\      /  F ield         | OpenFOAM: The Open Source CFD Toolbox
   \\    /   O peration     | Website:  https://openfoam.org
    \\  /    A nd           | Version:  13
     \\/     M anipulation  |
\*---------------------------------------------------------------------------*/
FoamFile
{
    format      ascii;
    class       volScalarField;
    location    "0.95";
    object      p;
}
// * * * * * * * * * * * * * * * * * * * * * * * * * * * * * * * * * * * * * //

dimensions      [1 -1 -2 0 0 0 0];

internalField   nonuniform List<scalar> 
2268
(
882.634
877.197
870.9
864.056
858.172
853.082
847.028
839.128
832.571
825.151
815.415
802.659
787.195
769.512
750.881
737.829
732.025
735.515
753.05
779.571
807.815
831.827
842.904
824.89
819.006
811.834
804.385
798.519
793.997
788.136
780.272
773.919
766.713
757.052
744.131
728.374
710.921
694.028
680.025
670.809
672.365
692
720.974
749.369
772.561
784.47
768.191
761.864
752.952
743.713
737.81
734.475
729.222
721.363
715.294
708.44
699.016
686.096
669.907
652.105
635.568
620.506
609.648
612.363
632.695
662.073
691.975
715.553
727.5
711.492
704.562
693.943
682.463
676.196
674.547
670.377
662.48
656.865
650.608
641.602
628.705
611.84
592.388
573.654
557.683
547.06
551.07
571.88
602.569
635.314
660.81
672.616
654.887
647.228
635.222
621.431
614.554
614.533
611.541
603.511
598.585
593.274
584.863
571.967
554.238
532.381
509.801
491.551
481.595
487.335
508.434
542.179
579.584
608.21
620.161
599.201
590.63
577.418
561.538
553.987
554.708
552.032
544.078
540.322
536.54
528.896
515.986
497.222
471.991
444.203
422.912
412.375
419.455
441.447
480.906
524.965
557.788
569.437
544.73
535.356
520.767
504.053
494.742
495.054
490.833
482.415
481.086
480.107
473.754
461.033
441.175
411.265
375.597
348.719
338.788
347.868
369.976
417.895
471.881
509.866
519.617
492.127
482.201
465.995
448.638
437.397
434.034
426.609
417.007
420.482
424.292
419.801
407.952
388.178
351.864
305.158
270.564
260.741
269.796
296.002
353.914
420.892
466.886
475.889
736.639
704.427
685.206
692.003
613.499
505.28
480.268
467.364
419.667
386.861
365.292
358.814
368.164
340.006
270.593
283.016
357.082
376.695
386.934
682.485
641.01
616.81
626.777
538.449
426.361
415.731
407.808
368.45
341.783
315.906
306.86
316.216
286.389
205.508
226.11
305.336
321.863
337.649
628.661
577.115
555.61
571.528
466.811
364.278
356.453
346.042
312.406
284.005
249.708
232.902
239.922
222.105
148.12
172.426
254.395
294.496
300.798
572.967
518.013
502.074
520.763
408.654
316.637
303.813
280.806
245.154
214.447
163.557
124.338
127.765
144.371
99.0899
128.397
212.867
266.349
267.551
517.244
461.514
449.521
484.148
386.448
277.609
249.923
216.425
172.687
131.959
74.2627
56.5245
63.2922
73.3977
59.3361
97.2706
182.936
237.714
233.518
465.121
408.599
397.487
470.873
410.263
246.108
198.162
162.828
102.889
64.9783
51.034
49.943
51.6601
50.2832
39.4762
72.5085
151.256
200.102
197.212
417.475
363.694
348.778
459.519
434.195
201.73
146.581
121.382
64.0582
51.1272
47.6215
47.451
47.552
46.0271
39.8802
51.2378
114.919
168.034
161.143
372.598
324.807
307.871
412.006
420.447
149.733
111.872
98.4371
56.6029
48.3278
45.9957
45.6847
45.4921
44.6539
42.9289
45.9037
77.4963
131.776
133.729
409.989
396.877
380.275
364.773
352.215
336.656
318.671
307.709
322.638
338.751
338.765
325.497
308.219
263.149
195.712
163.459
170.782
191.275
227.31
280.569
354.913
407.969
422.752
320.923
305.206
282.873
258.996
233.726
212.794
172.143
149.666
187.536
212.2
216.009
212.253
197.129
143.932
98.6881
99.3075
123.884
154.891
187.441
217.094
257.105
305.237
320.908
224.448
186.806
170.877
156.927
119.839
84.6011
64.6227
70.5499
79.2241
81.4807
68.3663
54.1164
56.2804
63.3974
62.1519
79.8248
101.237
127.416
150.588
175.006
168.717
176.575
185.955
175.621
90.6009
83.116
55.4572
34.2963
26.5434
31.7207
37.9732
29.7889
15.5962
12.6914
11.5643
13.5004
15.4296
8.55541
27.8241
72.3101
105.573
127.284
113.546
105.699
110.028
100.16
210.189
114.409
74.4321
53.9535
32.0251
12.9937
22.3811
27.5286
14.765
7.21771
8.54554
9.57766
10.4958
10.0778
4.83907
15.4674
51.1635
74.8015
80.3669
79.4735
77.5119
73.4761
56.698
241.782
108.445
46.367
19.0258
12.3057
9.74664
18.7193
22.9826
11.4284
7.82173
8.15337
8.21118
7.93494
5.79614
3.33771
8.71388
27.8675
45.6136
50.7279
51.8776
45.2089
32.6864
24.4018
153.441
39.0808
17.6709
8.60406
5.95057
5.86359
8.32271
8.52176
8.18498
5.1103
5.0429
5.19152
4.86031
3.66406
2.93538
4.60243
13.9281
22.7928
24.5417
20.1116
9.79911
12.5838
11.4078
88.5936
11.377
7.47603
6.17324
5.37502
4.78191
4.28742
3.93089
2.08422
-1.78326
1.26938
3.11966
3.38994
2.89136
2.44884
2.51506
3.46106
7.117
7.72675
4.7516
4.7912
5.56551
4.26671
53.4473
7.20331
5.81008
5.36383
4.80159
4.23259
3.72323
2.8929
1.04062
-0.261602
1.45336
2.65176
2.83264
2.61923
2.45824
2.42643
2.62027
2.89802
3.09363
3.40216
3.86494
3.88511
3.65534
29.7163
5.60691
5.00137
4.56759
3.96754
3.4845
3.08271
2.52663
1.72581
1.23355
1.79415
2.54944
2.57537
2.42691
2.34142
2.34805
2.47396
2.68131
2.91376
3.2016
3.4378
3.4159
3.34198
13.0355
3.62345
3.86351
3.56878
3.08919
2.76998
2.55399
2.2886
1.98913
1.94073
2.18858
2.40032
2.32729
2.21872
2.18552
2.22864
2.34255
2.50715
2.70248
2.91816
3.09117
3.13546
3.12242
7.77631
2.4177
2.91594
2.67615
2.42306
2.2669
2.14766
1.98458
1.83093
1.83809
2.0193
2.13464
2.11076
2.08481
2.09464
2.14228
2.23316
2.35645
2.50563
2.67378
2.82119
2.90373
2.95592
6.64551
1.72139
2.26969
2.0184
1.93698
1.86133
1.76464
1.61379
1.49086
1.50501
1.65474
1.80711
1.88283
1.92659
1.96789
2.02749
2.11343
2.22168
2.34342
2.47747
2.60578
2.70242
2.78002
3.7978
1.38136
1.76449
1.48655
1.49925
1.43757
1.32879
1.16341
1.04609
1.0652
1.21217
1.39266
1.54073
1.65448
1.75109
1.84726
1.95265
2.06787
2.18935
2.31291
2.42944
2.52873
2.61348
2.29447
0.963815
1.22117
0.947944
1.00183
0.910531
0.749888
0.537051
0.405137
0.429592
0.596659
0.836152
1.07479
1.28356
1.45955
1.61429
1.75828
1.8963
2.02904
2.15504
2.27037
2.37098
2.45748
2.31635
0.353286
0.598898
0.321905
0.366064
0.188113
-0.0903482
-0.406346
-0.591328
-0.552949
-0.315343
0.0407528
0.441013
0.804927
1.1024
1.34207
1.54238
1.71561
1.86847
2.00398
2.12297
2.22558
2.31309
2.07801
-0.366767
-0.105719
-0.45045
-0.481219
-0.846695
-1.3478
-1.84999
-2.11299
-2.02345
-1.66731
-1.10661
-0.440344
0.183469
0.677938
1.04274
1.31913
1.53736
1.71523
1.86351
1.98831
2.09343
2.18187
1.48352
-1.12663
-0.914818
-1.41086
-1.59113
-2.2818
-3.16465
-3.98592
-4.3365
-4.08539
-3.49104
-2.60459
-1.57588
-0.585119
0.196917
0.735999
1.10771
1.37637
1.57955
1.73918
1.86842
1.9751
2.06382
1.33417
-2.21963
-1.92807
-2.51653
-2.87904
-3.97052
-5.31029
-6.41139
-6.82754
-6.5677
-5.68298
-4.32995
-2.81611
-1.38106
-0.263939
0.469301
0.938561
1.2503
1.47086
1.63488
1.76384
1.8694
1.95656
-2.19163
-3.18347
-2.85629
-3.54798
-4.07326
-5.4869
-7.11778
-8.25766
-8.56436
-8.21029
-7.26948
-5.7693
-3.89246
-1.9957
-0.555582
0.31589
0.844315
1.17359
1.39505
1.55093
1.67248
1.77425
1.85755
-3.35948
-3.24834
-3.54858
-4.2834
-4.87884
-6.40067
-8.05808
-9.12868
-9.28882
-8.82466
-7.81995
-6.28114
-4.37558
-2.26228
-0.634002
0.311766
0.834016
1.14116
1.34224
1.48558
1.59666
1.68792
1.76455
-1.14389
-2.9239
-3.90283
-4.53884
-5.15196
-6.47703
-7.87366
-8.84648
-9.00853
-8.55213
-7.51681
-5.96733
-4.09154
-2.06807
-0.487548
0.424943
0.890769
1.14074
1.30639
1.42809
1.5247
1.6054
1.67472
12.239
-2.79095
-4.22745
-4.49521
-5.00183
-5.8897
-6.83531
-7.6221
-7.8664
-7.50775
-6.56801
-5.13133
-3.31933
-1.50296
-0.161539
0.582248
0.951001
1.13754
1.26688
1.36764
1.45099
1.52264
1.58557
14.9357
-4.40294
-4.38822
-4.52554
-4.7841
-5.18451
-5.68813
-6.18552
-6.32775
-6.03954
-5.34793
-4.09666
-2.42429
-0.89249
0.151718
0.678964
0.9464
1.0967
1.20687
1.29583
1.37128
1.43712
1.49555
13.2439
-5.64345
-3.7796
-4.40924
-4.47075
-4.51292
-4.61717
-4.68395
-4.63415
-4.48221
-4.12258
-3.11317
-1.762
-0.554045
0.24479
0.655615
0.874441
1.01671
1.12512
1.21222
1.2854
1.34867
1.40448
8.96268
-1.52983
-2.37895
-3.86234
-3.40225
-3.22082
-3.07947
-2.99944
-2.98721
-3.01737
-2.93999
-2.31566
-1.30275
-0.370767
0.213841
0.554129
0.768078
0.919895
1.03373
1.1232
1.19671
1.25905
1.31328
3.90624
2.71686
0.262731
-2.995
-2.09346
-1.54735
-1.33936
-1.36853
-1.54376
-1.73293
-1.75106
-1.43211
-0.802923
-0.226356
0.184584
0.474223
0.680947
0.832235
0.946674
1.03646
1.10949
1.17067
1.2233
2.92644
2.95527
2.26586
-0.335119
-0.744384
-0.00216233
0.0988699
-0.111133
-0.443453
-0.756016
-0.840941
-0.700519
-0.406551
-0.0784139
0.213515
0.447073
0.625654
0.763288
0.87093
0.956698
1.02677
1.08543
1.13571
2.98684
3.19638
3.33392
2.77968
1.93598
1.474
1.07794
0.685751
0.2651
-0.0702697
-0.232974
-0.240523
-0.106539
0.0856343
0.281526
0.453559
0.596323
0.71289
0.807751
0.885403
0.949875
1.00433
1.05118
3.14652
3.32412
3.58839
3.44993
2.80958
2.10834
1.54238
1.06791
0.681695
0.365411
0.1673
0.105368
0.143866
0.240818
0.359198
0.476949
0.583603
0.676125
0.754966
0.821774
0.878598
0.927387
0.969826
3.07821
3.1619
3.28732
3.14667
2.70895
2.18518
1.70498
1.28285
0.924894
0.639268
0.446496
0.349912
0.331613
0.366253
0.429488
0.50358
0.5778
0.646886
0.708951
0.763741
0.811795
0.853992
0.891297
2.86387
2.91116
2.9538
2.81451
2.50129
2.11204
1.72288
1.36543
1.05525
0.804002
0.622483
0.511914
0.46239
0.458218
0.483154
0.523932
0.571329
0.619677
0.665977
0.708867
0.7479
0.783147
0.814964
2.5984
2.62688
2.62101
2.49803
2.26094
1.96349
1.65488
1.36267
1.10256
0.886062
0.72103
0.608781
0.54379
0.516368
0.515805
0.532532
0.559096
0.590304
0.622854
0.654859
0.685309
0.713745
0.740071
2.31058
2.32394
2.29423
2.18569
2.00264
1.77566
1.53512
1.3012
1.08769
0.904896
0.759359
0.652867
0.582633
0.542844
0.526502
0.526835
0.538114
0.555934
0.577189
0.599835
0.622601
0.644736
0.665843
2.01614
2.01958
1.98199
1.8891
1.74621
1.5721
1.38552
1.20049
1.02792
0.876325
0.751254
0.654815
0.585921
0.541219
0.516212
0.506219
0.506989
0.514941
0.5274
0.542407
0.558635
0.5752
0.591545
1.72462
1.72256
1.68539
1.60816
1.4966
1.36299
1.21899
1.07407
0.936433
0.812814
0.707828
0.623638
0.560136
0.515511
0.486955
0.471287
0.465411
0.466612
0.472599
0.481671
0.492567
0.504393
0.516531
1.43999
1.43548
1.40251
1.3403
1.25424
1.15256
1.04253
0.930488
0.822449
0.723596
0.637655
0.566633
0.510929
0.469677
0.441178
0.42332
0.413906
0.410897
0.412435
0.417125
0.423848
0.431773
0.4403
1.16362
1.15876
1.13165
1.08331
1.01841
0.942474
0.85998
0.775167
0.692359
0.615428
0.547276
0.489632
0.443098
0.407353
0.381414
0.363906
0.353302
0.348097
0.346937
0.348611
0.352213
0.357037
0.362555
0.895381
0.891508
0.870779
0.834954
0.787889
0.733176
0.673508
0.611668
0.55067
0.4933
0.441717
0.397301
0.36067
0.331783
0.310103
0.294764
0.28474
0.278971
0.276476
0.276272
0.277682
0.280133
0.283205
0.634041
0.631822
0.617424
0.592857
0.561117
0.524387
0.484176
0.442215
0.400481
0.360844
0.324795
0.293332
0.266971
0.245786
0.229505
0.217614
0.209463
0.204351
0.201598
0.20046
0.200474
0.201193
0.202324
0.378372
0.378037
0.369504
0.355052
0.336797
0.315792
0.292701
0.268449
0.244159
0.220916
0.199592
0.180796
0.164867
0.151892
0.141753
0.134184
0.128826
0.125267
0.123054
0.121919
0.12123
0.120742
0.120332
0.124296
0.124741
0.12232
0.117844
0.112092
0.105478
0.0982166
0.0905381
0.0827752
0.0752769
0.0683285
0.0621364
0.0568231
0.0524313
0.0489377
0.0462713
0.0443323
0.043015
0.042237
0.0417126
0.0407695
0.0394434
0.0378413
427.579
395.982
361.11
334.956
268.918
211.634
171.667
150.103
111.638
56.5533
21.976
7.03619
14.5011
-36.1748
-62.482
-69.013
-22.0057
-60.542
-74.6712
-67.5038
-19.876
-40.716
-40.2567
-16.112
-4.17929
-13.3133
-3.35909
26.5129
5.88834
4.38988
16.5849
46.559
3.61357
8.01849
18.5785
43.2237
3.33196
3.21294
4.86961
15.4561
3.1274
3.17536
3.24617
3.658
2.99577
3.02528
3.06814
3.12752
2.83704
2.86744
2.8902
2.91025
2.67167
2.70486
2.73111
2.75129
2.51297
2.54557
2.57355
2.59572
2.36755
2.39913
2.42707
2.45092
2.23634
2.26809
2.2966
2.32185
2.11831
2.15024
2.17926
2.2055
2.01016
2.04176
2.07074
2.09724
1.90894
1.93941
1.96757
1.99359
1.81252
1.84119
1.86795
1.89292
1.71888
1.74549
1.7706
1.79426
1.62626
1.65095
1.67449
1.69685
1.53359
1.55676
1.57899
1.60021
1.44072
1.46277
1.48397
1.50425
1.3482
1.3694
1.38976
1.4092
1.25695
1.27732
1.29684
1.31544
1.16777
1.18716
1.20569
1.22334
1.08115
1.09929
1.11661
1.13311
0.997189
1.0138
1.02967
1.04481
0.915647
0.930493
0.94473
0.958344
0.836068
0.849017
0.861491
0.873474
0.757876
0.768884
0.779552
0.789856
0.680442
0.689548
0.698428
0.707062
0.603135
0.610431
0.617595
0.624605
0.525373
0.530991
0.536548
0.54202
0.446692
0.450795
0.454885
0.458941
0.366823
0.369591
0.372378
0.375162
0.285674
0.287295
0.288947
0.290611
0.203295
0.203945
0.204613
0.205287
0.120005
0.119788
0.11956
0.119315
0.0364743
0.0355422
0.0345629
0.0335326
304.059
259.518
243.542
295.099
300.373
103.466
90.6599
77.364
52.5986
46.1429
44.2917
43.795
43.7828
43.8657
43.8913
44.4884
52.5054
80.4511
99.5068
133.71
137.807
140.708
112.682
79.4669
76.1739
74.4562
54.7327
46.4277
43.8093
42.8963
42.7554
42.8855
43.1202
43.353
43.8841
47.9356
63.7181
86.3138
-1.41566
25.0805
54.8343
8.95964
24.897
63.8956
57.0843
42.7074
42.9307
42.4531
42.027
42.1895
42.4874
42.6666
42.9347
43.1616
44.7741
52.2515
84.4576
-53.5566
-12.5791
31.7525
39.1653
42.9481
55.8788
45.1709
41.4413
42.4396
41.8126
41.4348
41.7395
42.1452
42.096
42.4202
42.5987
43.7962
48.36
82.2812
-32.0757
13.2001
40.074
41.1187
43.4183
46.174
44.038
43.2577
42.9786
41.8849
41.3403
41.6511
41.8872
41.6292
41.9209
42.504
44.5045
49.7231
78.4825
33.9831
39.6793
42.5189
43.1508
43.8368
44.0016
43.7133
43.9345
43.4611
42.5472
42.0144
42.2252
42.1366
41.5748
41.5893
42.0692
41.819
42.3593
54.6781
60.3278
44.7335
44.0072
44.1409
44.2749
44.1163
44.0483
44.1645
43.7863
43.2169
42.8251
42.7407
42.4805
42.0877
41.6192
38.5846
27.7029
18.5283
17.4871
72.7571
46.2854
45.1247
44.9769
44.5507
44.0809
43.8135
43.9923
43.962
43.6659
43.4212
42.7929
40.7208
35.6005
32.0172
27.6623
13.7004
4.65589
5.39645
82.8601
47.5384
46.4709
45.1972
44.5694
43.7422
42.9997
42.7868
43.1695
43.4515
42.9268
35.1731
25.0699
23.9919
22.9001
17.3684
5.52665
3.23164
4.26899
49.5318
70.7585
18.7614
43.1785
43.8982
42.9189
41.8901
41.177
41.5494
42.0469
35.854
24.9488
14.9015
15.0498
13.9254
7.82522
4.04498
3.8682
4.25636
12.7882
50.2917
51.9034
24.9154
42.9338
42.0878
41.016
40.262
41.2785
40.1263
25.1389
12.9262
17.2647
15.0908
5.76363
3.53807
3.71597
3.93513
4.26851
3.39687
12.661
33.6254
33.1977
23.6528
41.7497
40.2154
39.7693
39.0388
23.5673
8.02721
4.15241
3.71824
3.55964
3.55091
3.5107
3.59036
3.7138
3.99636
2.96103
3.15964
7.59514
13.901
15.1379
26.9607
39.335
40.0771
35.2713
5.24642
3.25739
3.80839
3.71792
3.57455
3.55115
3.54899
3.52441
3.52983
3.7431
2.77171
2.78316
2.80216
5.70793
11.2789
14.9478
23.135
20.196
10.8073
3.88078
3.71902
3.67799
3.58929
3.51399
3.47543
3.45199
3.42847
3.39302
3.5307
2.62223
2.63296
2.62716
2.60278
5.68352
21.902
26.1705
20.9569
5.05732
3.47499
3.49114
3.4719
3.42183
3.37297
3.34123
3.31649
3.2994
3.269
3.35304
2.48395
2.50679
2.51293
2.54406
2.49862
3.11472
15.7174
4.88802
3.13791
3.22936
3.25577
3.25539
3.23671
3.21101
3.1927
3.16782
3.14808
3.13382
3.18336
2.35862
2.39353
2.4183
2.44026
2.46313
2.52516
2.63012
2.65973
2.8372
2.96743
3.0325
3.05339
3.05461
3.04558
3.03545
3.01507
2.98875
2.98074
3.0035
2.24485
2.28684
2.32081
2.35188
2.38256
2.41865
2.49089
2.57185
2.69227
2.78474
2.8405
2.86861
2.87991
2.88078
2.87621
2.86449
2.8224
2.82413
2.8214
2.13771
2.1839
2.2232
2.25971
2.29918
2.34752
2.41022
2.4751
2.55357
2.62245
2.67076
2.69926
2.71405
2.72023
2.71798
2.71035
2.66045
2.67731
2.64176
2.03391
2.08173
2.12373
2.16359
2.2053
2.25119
2.30313
2.36182
2.42192
2.47538
2.51541
2.54095
2.55574
2.56375
2.56279
2.55756
2.50309
2.51847
2.48324
1.93209
1.97989
2.02281
2.06369
2.10511
2.14863
2.19521
2.24496
2.29346
2.33654
2.36901
2.38938
2.4011
2.4086
2.4089
2.40618
2.3577
2.34161
2.34628
1.83178
1.87858
1.92114
1.96157
2.00163
2.04235
2.0842
2.12672
2.16747
2.2027
2.22708
2.23948
2.24538
2.25143
2.25425
2.25481
2.21701
2.1779
2.21853
1.73259
1.77788
1.81932
1.8585
1.89667
1.93451
1.9722
2.00908
2.04374
2.07177
2.08644
2.08807
2.08673
2.09238
2.10144
2.11265
2.09795
2.05057
2.10454
1.63427
1.67782
1.71778
1.75536
1.79146
1.82654
1.86059
1.893
1.92275
1.94358
1.9474
1.93772
1.93055
1.93835
1.95668
1.98392
1.99778
1.96644
2.00966
1.53683
1.57858
1.61689
1.65273
1.68677
1.71934
1.75037
1.77941
1.80565
1.82071
1.81589
1.79813
1.7886
1.80089
1.82951
1.87102
1.91203
1.89277
1.92595
1.44041
1.48034
1.51691
1.55094
1.58301
1.61335
1.64197
1.66858
1.69347
1.70703
1.69959
1.68092
1.67276
1.68842
1.72468
1.77494
1.83178
1.8112
1.84047
1.34525
1.38325
1.41796
1.45013
1.48027
1.50861
1.53521
1.55975
1.58644
1.60065
1.59943
1.58831
1.5866
1.60635
1.64726
1.69325
1.72636
1.72206
1.7454
1.25156
1.28742
1.32011
1.35031
1.37851
1.40498
1.42985
1.45304
1.47942
1.49682
1.50505
1.50733
1.51543
1.53637
1.56917
1.60162
1.61257
1.61921
1.63696
1.15947
1.19293
1.22339
1.25149
1.27768
1.30226
1.3255
1.34776
1.37033
1.38941
1.40348
1.41462
1.42806
1.4454
1.46597
1.48692
1.49557
1.50463
1.51755
1.06903
1.0998
1.12784
1.15369
1.17777
1.20036
1.2217
1.24203
1.26153
1.27927
1.29381
1.30715
1.3206
1.33429
1.34937
1.36447
1.37551
1.38424
1.39377
0.980182
1.00802
1.03347
1.05695
1.07882
1.09932
1.11861
1.13682
1.15389
1.16946
1.18281
1.19486
1.20718
1.21959
1.23268
1.24572
1.25584
1.26331
1.27024
0.892766
0.91751
0.940224
0.961244
0.980827
0.999155
1.01634
1.03251
1.0476
1.06137
1.07375
1.08459
1.09563
1.10716
1.11874
1.12933
1.13743
1.14345
1.14839
0.806525
0.828069
0.847962
0.866425
0.883651
0.899759
0.914842
0.92903
0.942293
0.954444
0.965684
0.975947
0.985787
0.995823
1.0054
1.01394
1.02032
1.02502
1.02847
0.721098
0.739406
0.756419
0.772259
0.787072
0.800924
0.81391
0.826157
0.837612
0.848183
0.858095
0.867291
0.876042
0.88446
0.892299
0.899258
0.904361
0.908047
0.910448
0.636064
0.651167
0.665288
0.678489
0.690879
0.702478
0.713396
0.723724
0.733404
0.742419
0.750938
0.75885
0.766371
0.773355
0.779751
0.78537
0.789452
0.792352
0.794061
0.551021
0.563022
0.57431
0.584922
0.594936
0.604338
0.613249
0.621716
0.629683
0.637154
0.644229
0.650788
0.65701
0.662647
0.667755
0.672153
0.675372
0.677636
0.678889
0.465662
0.474735
0.483318
0.491444
0.499168
0.506465
0.513444
0.520114
0.526403
0.532312
0.537897
0.543066
0.547942
0.552286
0.55621
0.559501
0.561975
0.563683
0.564618
0.379818
0.386176
0.392223
0.397994
0.403532
0.40882
0.413925
0.418821
0.423428
0.427751
0.431825
0.435599
0.439139
0.442265
0.445092
0.447399
0.449202
0.450412
0.451104
0.293418
0.297276
0.300952
0.304495
0.307944
0.311283
0.314527
0.317633
0.320547
0.323285
0.32587
0.328278
0.330526
0.332507
0.3343
0.335737
0.336904
0.33766
0.338147
0.206417
0.20793
0.209342
0.210734
0.212133
0.213519
0.214883
0.216196
0.217439
0.218625
0.219762
0.220837
0.22184
0.222724
0.223528
0.224162
0.224708
0.225043
0.225343
0.118881
0.118171
0.117413
0.116706
0.116074
0.115519
0.115032
0.114601
0.114222
0.113896
0.113618
0.113378
0.113162
0.112959
0.112791
0.112633
0.112557
0.112492
0.112637
0.0317272
0.0290064
0.026219
0.023515
0.0209367
0.0185127
0.0162378
0.0141007
0.0121096
0.0102669
0.00856306
0.0069844
0.005522
0.00417369
0.00299193
0.0019658
0.00122323
0.000719627
0.000858851
)
;

boundaryField
{
    leftWall
    {
        type            calculated;
        value           nonuniform List<scalar> 
50
(
882.634
824.89
768.191
711.492
654.887
599.201
544.73
492.127
409.989
320.923
224.448
175.621
210.189
241.782
153.441
88.5936
53.4473
29.7163
13.0355
7.77631
6.64551
3.7978
2.29447
2.31635
2.07801
1.48352
1.33417
-2.19163
-3.35948
-1.14389
12.239
14.9357
13.2439
8.96268
3.90624
2.92644
2.98684
3.14652
3.07821
2.86387
2.5984
2.31058
2.01614
1.72462
1.43999
1.16362
0.895381
0.634041
0.378372
0.124296
)
;
    }
    rightWall
    {
        type            calculated;
        value           nonuniform List<scalar> 
50
(
386.934
337.649
300.798
267.551
233.518
197.212
161.143
133.729
99.5068
86.3138
84.4576
82.2812
78.4825
54.6781
17.4871
5.39645
4.26899
4.25636
4.26851
3.99636
3.7431
3.5307
3.35304
3.18336
3.0035
2.8214
2.64176
2.48324
2.34628
2.21853
2.10454
2.00966
1.92595
1.84047
1.7454
1.63696
1.51755
1.39377
1.27024
1.14839
1.02847
0.910448
0.794061
0.678889
0.564618
0.451104
0.338147
0.225343
0.112637
0.000858851
)
;
    }
    lowerWall
    {
        type            calculated;
        value           nonuniform List<scalar> 
62
(
912.063
906.626
900.329
893.485
887.601
882.511
876.457
868.557
862
854.581
844.845
832.088
816.625
798.933
779.852
766.266
761.194
764.684
782.087
808.394
836.941
861.219
872.332
842.904
784.47
727.5
672.616
620.161
569.437
519.617
475.889
489.89
457.624
421.905
396.269
736.639
682.485
628.661
572.967
517.244
465.121
417.475
372.598
765.639
733.48
714.357
721.221
642.718
534.499
509.379
496.368
444.12
407.726
386.156
379.717
389.536
362.029
291.687
304.119
379.571
401.787
412.032
)
;
    }
    atmosphere
    {
        type            calculated;
        value           nonuniform List<scalar> 
46
(
0
0
0
0
0
0
0
0
0
0
0
0
0
0
0
0
0
0
0
-0.000113954
-0.000793225
-0.00200797
-0.00369539
-0.00520429
-0.00629495
-0.00749823
-0.00881452
-0.011212
-0.0148514
-0.0185765
-0.0221622
-0.0256097
-0.0288906
-0.0320218
-0.0350106
-0.0378171
-0.040429
-0.0428617
-0.0451376
-0.0472634
-0.0492462
-0.0509768
-0.0525221
-0.0536445
-0.0544609
-0.0541191
)
;
    }
    defaultFaces
    {
        type            empty;
    }
}


// ************************************************************************* //
