/*--------------------------------*- C++ -*----------------------------------*\
  =========                 |
  \\      /  F ield         | OpenFOAM: The Open Source CFD Toolbox
   \\    /   O peration     | Website:  https://openfoam.org
    \\  /    A nd           | Version:  13
     \\/     M anipulation  |
\*---------------------------------------------------------------------------*/
FoamFile
{
    format      ascii;
    class       volScalarField;
    location    "0.95";
    object      p_rgh;
}
// * * * * * * * * * * * * * * * * * * * * * * * * * * * * * * * * * * * * * //

dimensions      [1 -1 -2 0 0 0 0];

internalField   nonuniform List<scalar> 
2268
(
912.063
906.626
900.329
893.485
887.601
882.511
876.457
868.557
862
854.581
844.845
832.088
816.625
798.933
779.852
766.266
761.194
764.684
782.087
808.394
836.941
861.219
872.332
913.179
907.294
900.122
892.673
886.807
882.285
876.425
868.56
862.207
855.002
845.341
832.419
816.662
798.832
778.516
764.327
755.414
758.17
777.355
806.325
834.748
860.731
872.755
915.337
909.011
900.099
890.859
884.957
881.622
876.369
868.51
862.441
855.587
846.163
833.243
817.053
799.191
779.689
761.012
750.15
752.916
776.593
807.189
838.418
862.693
874.643
917.498
910.568
899.949
888.469
882.202
880.553
876.383
868.485
862.87
856.613
847.608
834.711
817.846
798.393
779.558
762.021
750.288
756.285
777.886
808.575
841.319
866.816
878.62
919.751
912.093
900.086
886.295
879.417
879.397
876.405
868.375
863.449
858.138
849.727
836.831
819.102
797.245
774.665
756.415
746.459
752.199
773.298
807.043
844.448
873.074
885.025
922.924
914.353
901.141
885.261
877.705
878.404
875.71
867.791
864.045
860.263
852.619
839.709
820.945
795.714
767.926
746.635
736.097
743.178
765.169
804.628
848.687
881.511
893.157
927.312
917.937
903.349
886.634
877.324
877.319
872.901
864.962
863.668
862.689
856.336
843.615
823.757
793.846
758.176
731.3
721.368
730.443
752.558
800.476
854.441
892.436
902.187
933.568
923.642
907.436
890.078
878.838
874.952
867.383
858.297
861.923
865.732
861.241
849.392
829.619
793.288
746.542
711.931
695.581
677.326
687.8
782.147
862.308
908.254
917.307
765.639
733.48
714.357
721.221
642.718
534.499
509.379
496.368
444.12
407.726
386.156
379.717
389.536
362.029
291.687
304.119
379.571
401.787
412.032
769.913
728.438
702.088
707.454
626.052
514.018
503.388
491.832
434.287
404.376
386.138
378.795
388.17
358.324
275.611
289.415
380.173
397.153
402.683
774.376
718.628
666.626
681.372
612.807
510.047
501.348
473.013
422.214
402.906
369.538
352.826
359.814
341.941
267.878
289.587
379.085
416.6
394.961
776.889
699.38
655.254
673.94
611.292
517.766
500.247
453.51
411.431
381.537
331.141
271.62
261.18
311.385
266.72
295.951
375.215
398.138
399.359
778.988
700.489
646.46
692.864
642.055
533.86
469.558
403.968
380.014
345.3
182.539
78.0104
77.2646
172.935
273.988
312.528
352.379
407.157
406.519
784.44
667.361
638.675
789.749
723.057
542.017
405.248
347.701
307.111
149.264
53.3305
51.073
53.2402
57.318
181.467
333.744
376.5
409.792
434.375
795.482
669.617
675.241
839.824
783.055
510.321
329.193
293.282
144.123
52.9433
48.4301
48.1669
48.4328
47.7234
56.1368
256.97
389.841
445.93
441.426
809.49
678.134
721.072
851.143
781.431
406.957
200.579
215.069
82.8671
49.2527
46.7175
46.3915
46.2407
45.5509
44.1407
81.329
294.055
388.122
385.56
943.291
930.339
913.742
898.004
885.438
870.114
852.137
841.175
856.105
867.159
842.9
848.051
841.683
795.311
681.86
544.774
435.723
380.165
396.955
571.46
840.798
941.328
955.928
785.028
897.819
937.844
903.515
879.713
871.441
772.373
574.752
523.076
519.329
815.141
857.085
839.77
543.042
225.854
173.537
198.055
229.12
262.919
333.628
771.058
954.569
948.674
550.251
512.859
789.872
925.103
888.455
741.193
318.374
117.178
171.065
466.131
560.771
360.413
216.236
184.359
164.681
168.301
190.427
218.767
446.546
653.108
639.677
533.234
668.551
605.329
800.543
838.792
786.484
344.127
119.861
63.2739
56.8542
52.7662
102.865
59.5539
44.7777
44.3558
100.875
324.661
377.271
422.396
454.651
474.859
345.28
174.651
189.73
559.831
944.043
831.648
273.615
130.095
120.72
101.684
46.4077
47.1776
29.1671
16.8525
15.9475
16.8897
13.7543
50.618
134.431
197.992
184.547
155.36
157.263
154.88
152.063
157.798
697.517
1051.16
478.583
51.0829
97.6896
113.757
110.915
119.68
105.679
54.7783
16.8677
12.2412
11.9134
11.0151
8.22925
6.34796
14.7603
65.3612
177.924
185.296
147.113
114.779
147.623
749.909
971.298
241.879
19.8784
13.7948
11.3626
26.2254
92.8936
107.732
107.397
91.1656
28.1951
6.70765
6.30005
5.26578
4.74091
30.672
156.179
172.072
174.759
169.139
68.2367
30.5499
306.908
943.161
216.135
9.16401
7.65292
6.83867
6.39053
6.32663
18.6756
68.9813
88.3099
21.3521
4.61749
4.84002
4.43186
3.90734
3.99384
18.1987
95.8402
111.562
25.7439
6.56567
8.30562
15.0257
954.32
205.419
7.41986
6.91675
6.3518
5.80997
5.54226
7.93848
10.4595
12.9694
10.6184
4.2255
4.3769
4.15781
4.03231
4.02763
4.22147
4.52707
4.75058
5.09135
5.59887
5.65525
6.40195
969.743
127.682
6.68048
6.23335
5.63168
5.15279
4.87554
4.85423
4.37778
3.41423
3.51008
4.22975
4.23996
4.08752
4.00241
4.07264
4.37259
4.68117
4.81466
5.13084
5.32063
5.21819
5.33722
1015.43
19.7362
5.65472
5.35604
4.87559
4.55686
4.34502
4.22299
4.24006
4.16476
3.99693
4.18719
4.1132
4.00419
3.97099
4.01418
4.21783
4.67151
4.94724
5.16292
5.29784
5.02893
4.933
1075.69
5.98364
4.82849
4.58739
4.33393
4.17781
4.05995
3.90849
3.76895
3.7913
3.96592
4.05354
4.02143
3.99548
4.00531
4.05295
4.14384
4.26721
4.74743
5.07594
5.19065
4.93139
4.87602
1096.24
3.7625
4.30615
4.05443
3.97287
3.89723
3.80076
3.65048
3.52758
3.54119
3.69194
3.84476
3.91881
3.96245
4.00376
4.06336
4.14926
4.25749
4.37922
4.58852
4.75151
4.73835
4.82434
679.906
3.54446
3.92574
3.64765
3.6603
3.59863
3.48987
3.32451
3.20722
3.22638
3.3733
3.55377
3.70183
3.81557
3.91221
4.00837
4.11369
4.22887
4.35034
4.47391
4.59044
4.68974
4.77808
422.799
3.25086
3.50746
3.23419
3.28807
3.19678
3.03614
2.82332
2.69144
2.71596
2.88307
3.12248
3.3611
3.56986
3.74582
3.90057
4.04454
4.1825
4.31523
4.44124
4.55657
4.6572
4.7437
702.737
2.76504
3.01035
2.73335
2.77751
2.59955
2.32109
2.00511
1.82017
1.85862
2.09627
2.45234
2.85262
3.21645
3.51381
3.75346
3.95376
4.127
4.27986
4.41537
4.53437
4.63708
4.72462
832.729
2.17005
2.43097
2.0862
2.05547
1.69003
1.19041
0.728877
0.622543
0.540339
0.878871
1.43151
2.09799
2.72112
3.21475
3.57935
3.85572
4.07394
4.25181
4.40009
4.5249
4.63002
4.71859
874.256
1.60678
1.7472
1.25103
1.07284
0.383253
-0.438942
-0.437507
-0.771247
-0.529425
-0.5614
0.065667
1.09481
2.08273
2.85995
3.39792
3.76949
4.03815
4.24133
4.40095
4.53019
4.63688
4.72559
915.157
0.901561
0.859252
0.271188
-0.0891788
-1.08975
-1.66655
-2.67357
-3.09459
-2.83475
-1.95977
-1.16099
0.154381
1.43007
2.52869
3.25717
3.7256
4.03727
4.25783
4.42185
4.55081
4.65637
4.74353
363.64
-0.270342
0.0562913
-0.635301
-1.15903
-2.26912
-3.21504
-4.34684
-4.75455
-5.23183
-4.25228
-1.70933
0.334769
1.58472
2.38503
3.23846
3.7583
4.08592
4.30723
4.4631
4.58465
4.68641
4.76971
8.83518
-0.076899
-0.510639
-1.24545
-1.83239
-2.92613
-3.9798
-5.05154
-5.78129
-5.72135
-4.71638
-3.13314
0.312242
2.46998
3.18416
3.43615
3.88007
4.1793
4.37966
4.52294
4.63402
4.72528
4.8019
224.335
1.91821
-0.738947
-1.37467
-1.97723
-3.09301
-3.87614
-4.8423
-5.66798
-5.31774
-4.28565
-2.73158
0.0892396
2.93845
4.41886
3.87947
4.06298
4.30431
4.46902
4.59065
4.68725
4.76795
4.83728
363.322
7.53286
-0.935281
-1.20479
-1.70878
-2.58914
-3.48305
-4.22662
-4.47134
-4.13005
-3.20412
-1.75106
1.39582
3.78537
5.04316
4.35461
4.24486
4.42586
4.55467
4.65539
4.73874
4.81039
4.87331
381.717
10.7338
-0.957827
-1.10303
-1.36265
-1.76208
-2.25242
-2.45041
-2.46722
-2.47219
-1.83552
0.20751
3.07062
4.62668
5.57362
4.32769
4.36569
4.51027
4.61986
4.70878
4.78423
4.85006
4.90849
392.238
88.5753
0.0496146
-0.837976
-0.9219
-0.956539
-0.719134
-0.410268
-0.724685
-0.752788
0.627823
2.58331
3.9612
5.15631
5.00688
4.24215
4.41661
4.55529
4.6633
4.75036
4.82354
4.88681
4.94262
206.296
174.326
48.9043
2.63608
0.524181
1.84323
1.59581
1.11786
1.00991
0.882738
2.85383
3.60932
4.62031
5.35781
4.12847
4.22292
4.43224
4.58332
4.69707
4.78653
4.86004
4.92238
4.97661
12.8266
120.488
121.107
67.1754
41.5609
9.02184
3.59378
2.77993
2.37932
2.11007
3.64128
4.6278
4.84751
3.83295
3.97658
4.26324
4.46955
4.62077
4.7352
4.82499
4.89801
4.95919
5.01182
8.20973
29.2186
62.1486
68.3273
42.3753
10.4716
4.6264
3.94164
3.49612
3.185
3.48636
3.83985
3.77606
3.85187
4.12763
4.36085
4.53938
4.67701
4.78465
4.87042
4.94049
4.99915
5.04942
7.32881
8.60516
12.6963
14.1254
12.4047
7.89056
5.27783
4.75147
4.30801
3.96923
3.80615
3.80426
3.94144
4.12901
4.32056
4.49248
4.63524
4.7518
4.84666
4.92432
4.98879
5.04324
5.09009
7.37363
7.79635
9.02241
8.62676
7.50249
6.45137
5.74209
5.23619
4.84646
4.52966
4.33157
4.27002
4.30863
4.40526
4.52333
4.64106
4.74771
4.84023
4.91907
4.98588
5.04271
5.0915
5.13393
7.37942
7.51808
7.87698
7.66637
7.10286
6.50408
6.00018
5.573
5.21431
4.92859
4.73582
4.63927
4.62096
4.65558
4.71879
4.79288
4.8671
4.93619
4.99825
5.05304
5.1011
5.14329
5.1806
7.2805
7.33898
7.43073
7.2737
6.93411
6.53157
6.1384
5.78009
5.46977
5.2185
5.03698
4.92642
4.87689
4.87272
4.89765
4.93843
4.98583
5.03417
5.08047
5.12336
5.1624
5.19764
5.22946
7.13846
7.16897
7.17215
7.04536
6.80352
6.50396
6.19473
5.90239
5.64225
5.42575
5.26072
5.14847
5.08348
5.05606
5.0555
5.07222
5.09879
5.13
5.16255
5.19455
5.225
5.25344
5.27976
6.97552
6.98922
6.96103
6.85174
6.66794
6.44065
6.20003
5.96609
5.75258
5.56978
5.42425
5.31775
5.24752
5.20773
5.19139
5.19172
5.203
5.22082
5.24208
5.26472
5.28749
5.30962
5.33073
6.80623
6.80973
6.77236
6.67935
6.53634
6.3622
6.1756
5.99057
5.818
5.66641
5.54134
5.4449
5.376
5.3313
5.30629
5.2963
5.29707
5.30502
5.31748
5.33249
5.34872
5.36528
5.38163
6.63989
6.63784
6.6007
6.52346
6.41188
6.27827
6.13426
5.98935
5.85171
5.72809
5.6231
5.53891
5.47541
5.43079
5.40223
5.38656
5.38069
5.38189
5.38787
5.39695
5.40784
5.41967
5.43181
6.48046
6.47595
6.44298
6.38077
6.29471
6.19303
6.083
5.97096
5.86292
5.76407
5.67813
5.6071
5.5514
5.51015
5.48165
5.46379
5.45438
5.45137
5.45291
5.4576
5.46432
5.47224
5.48077
6.32928
6.32442
6.29732
6.24898
6.18408
6.10814
6.02564
5.94083
5.85802
5.78109
5.71294
5.6553
5.60876
5.57302
5.54708
5.52957
5.51897
5.51376
5.5126
5.51428
5.51788
5.5227
5.52822
6.18624
6.18237
6.16164
6.12581
6.07875
6.02404
5.96437
5.90253
5.84153
5.78416
5.73258
5.68816
5.65153
5.62264
5.60096
5.58562
5.5756
5.56983
5.56734
5.56713
5.56854
5.57099
5.57406
6.05009
6.04788
6.03348
6.00891
5.97717
5.94044
5.90023
5.85827
5.81653
5.7769
5.74085
5.70939
5.68302
5.66184
5.64556
5.63367
5.62552
5.6204
5.61765
5.61651
5.61653
5.61725
5.61838
5.91962
5.91929
5.91075
5.8963
5.87804
5.85704
5.83395
5.8097
5.78541
5.76216
5.74084
5.72204
5.70612
5.69314
5.683
5.67543
5.67007
5.66652
5.6643
5.66317
5.66248
5.66199
5.66158
5.79074
5.79118
5.78876
5.78429
5.77853
5.77192
5.76466
5.75698
5.74922
5.74172
5.73477
5.72858
5.72327
5.71887
5.71538
5.71271
5.71078
5.70946
5.70868
5.70816
5.70721
5.70589
5.70428
958.605
921.31
879.213
857.478
909.153
841.264
769.676
646.565
873.734
815.244
638.512
511.323
897.542
845.004
790.164
701.99
980.51
936.591
909.665
899.658
1097.91
1067.25
1052.97
1048.18
1142.9
1199.57
1186.53
1188.19
635.55
1231.43
1295.23
1297.07
17.5907
486.792
1203.5
1360.62
6.18434
9.39872
95.3515
787.513
5.08678
5.27417
6.36462
10.2093
4.92679
4.97717
5.03887
5.77824
4.90737
4.9135
4.93726
4.97124
4.86422
4.87663
4.89292
4.91341
4.79918
4.84382
4.86039
4.8826
4.77896
4.81051
4.83908
4.86425
4.77294
4.80467
4.83318
4.85844
4.78008
4.81202
4.84104
4.86728
4.79713
4.82873
4.85771
4.88421
4.82111
4.85157
4.87974
4.90576
4.84988
4.87855
4.9053
4.93027
4.88143
4.90804
4.93315
4.95681
4.91401
4.93869
4.96224
4.9846
4.94654
4.9697
4.99193
5.01315
4.97885
5.0009
5.02211
5.04238
5.01153
5.03273
5.05309
5.07253
5.04547
5.06585
5.08536
5.10397
5.08149
5.10088
5.11941
5.13706
5.12007
5.13821
5.15553
5.17202
5.1613
5.1779
5.19378
5.20892
5.20495
5.2198
5.23403
5.24765
5.25057
5.26351
5.27599
5.28797
5.29757
5.30858
5.31924
5.32955
5.34533
5.35443
5.36331
5.37195
5.39322
5.40051
5.40768
5.41469
5.44065
5.44627
5.45182
5.4573
5.48716
5.49126
5.49536
5.49941
5.53249
5.53526
5.53804
5.54083
5.57653
5.57815
5.57981
5.58147
5.61935
5.62
5.62067
5.62134
5.66125
5.66104
5.66081
5.66056
5.70292
5.70198
5.70101
5.69998
832.029
772.525
772.864
825.782
778.892
274.714
148.105
152.827
62.0831
47.0159
45.1373
44.6426
44.6361
44.7412
44.8081
45.6089
54.071
95.0846
121.249
738.557
777.928
746.677
739.679
662.673
130.794
146.056
108.909
47.5416
44.8536
43.9363
43.7988
43.9323
44.1774
44.4428
45.0187
49.2161
65.6583
90.9687
502.871
608.663
705.505
754.068
498.868
117.85
140.495
80.9068
44.1839
43.6874
43.2608
43.4273
43.7366
44.3732
44.283
44.536
47.3097
73.7276
103.102
562.968
530.993
716.569
553.612
137.003
120.567
117.154
45.6893
43.8712
43.2386
42.8617
43.2934
45.6863
45.0886
44.015
44.2689
45.62
137.152
171.242
833.887
319.349
110.641
69.0382
53.6974
79.6857
71.9905
44.9439
44.601
43.5061
42.9626
44.271
48.1137
44.5821
43.8208
44.5862
52.1646
163.262
187.26
788.319
122.512
46.3408
46.6166
46.994
46.9224
45.8057
45.7726
45.2784
44.3645
43.8318
45.5028
49.0368
45.2935
44.4799
45.3428
111.454
183.461
111.63
808.867
61.6044
47.9536
47.6439
47.1245
46.5004
46.1332
46.1901
45.7999
45.2305
44.8418
45.059
46.7365
49.2128
63.0422
99.7736
236.065
178.448
58.0784
1056.94
127.746
49.4722
49.0738
48.4856
49.0485
52.1404
50.4401
47.2951
48.5859
46.3533
47.8795
85.8322
217.484
356.958
417.904
358.611
59.5684
16.1448
1342.38
666.371
51.4041
50.0409
49.2301
50.7499
52.2133
52.0231
51.9396
48.9357
78.3393
237.147
459.11
465.558
464.467
458.935
97.8196
4.77911
5.96042
1196.84
1215.42
905.022
57.7028
49.2225
48.4402
51.7629
49.6053
48.6539
85.7661
398.496
497.007
488.884
491.793
489.87
171.837
5.70555
5.52896
5.92533
401.568
1282.02
1283.63
1056.09
58.3565
48.3715
47.8834
47.3811
48.545
375.308
487.346
484.124
450.141
344.067
70.7787
5.3237
5.50169
5.7211
6.05467
6.5078
351.832
1338.43
1377.96
1119.34
57.7288
47.8335
47.5452
205.273
398.444
290.452
14.6376
5.62898
5.47038
5.46164
5.42147
5.50125
5.62514
5.90777
5.04246
5.84792
231.194
1365.36
1452.57
1018.2
48.5913
48.4352
676.474
353.109
5.83852
5.85202
5.75386
5.61048
5.5875
5.58504
5.56064
5.56706
5.78053
4.93498
4.95645
5.21619
223.038
1359.1
1373.08
833.537
942.598
784.919
56.9763
6.08972
5.84022
5.75037
5.67514
5.63885
5.64527
5.64316
5.55907
5.71263
4.90849
4.91923
4.91519
4.93125
157.645
1245.99
1238.72
1120.43
131.741
5.87118
5.7803
5.75969
5.70802
5.6593
5.62802
5.69793
5.90179
5.66949
5.68226
4.89537
4.91819
4.92437
4.95552
4.91001
37.1538
516.846
103.93
5.58124
5.64124
5.6673
5.66678
5.64809
5.62253
5.60457
5.67287
5.89276
5.80829
6.05788
4.8952
4.93012
4.95488
4.97684
4.99971
5.06174
5.1667
5.19631
5.37378
5.50401
5.56908
5.58997
5.59119
5.58217
5.5722
5.58311
5.87678
5.67792
6.36692
4.90663
4.94861
4.98259
5.01366
5.04438
5.0805
5.15267
5.23362
5.35404
5.44651
5.50228
5.53039
5.54169
5.54256
5.53798
5.53125
5.82731
5.65347
6.35308
4.92467
4.97087
5.01017
5.04668
5.08615
5.13449
5.19719
5.26207
5.34055
5.40942
5.45773
5.48623
5.50102
5.5072
5.50495
5.49732
5.53187
5.87607
6.33143
4.94607
4.99389
5.0359
5.07576
5.11746
5.16335
5.21529
5.27399
5.33408
5.38754
5.42758
5.45312
5.46791
5.47592
5.47496
5.46973
5.447
6.88435
5.68252
4.96945
5.01724
5.06017
5.10105
5.14247
5.18599
5.23257
5.28232
5.33082
5.3739
5.40638
5.42746
5.43954
5.44628
5.44627
5.44354
5.46193
6.898
5.44378
4.99433
5.04113
5.08369
5.12413
5.16418
5.2049
5.24676
5.28927
5.33002
5.36528
5.39076
5.4041
5.41
5.41564
5.41688
5.41736
5.44146
6.91585
5.44217
5.02034
5.06563
5.10707
5.14625
5.18441
5.22226
5.25995
5.29682
5.33149
5.36079
5.37631
5.37796
5.37663
5.38227
5.3894
5.4004
5.41933
5.91823
5.43221
5.04721
5.09076
5.13072
5.1683
5.2044
5.23948
5.27353
5.30594
5.3363
5.35868
5.36254
5.35258
5.34513
5.35228
5.36966
5.39687
5.45883
5.38447
5.42738
5.07496
5.11671
5.15503
5.19086
5.22491
5.25747
5.28851
5.31754
5.34592
5.36105
5.35532
5.33673
5.3272
5.33951
5.36829
5.40917
5.52275
5.44398
5.46612
5.10374
5.14367
5.18024
5.21427
5.24634
5.27668
5.3053
5.33192
5.359
5.37129
5.36342
5.34474
5.33657
5.35332
5.38957
5.43828
5.64771
5.54974
5.50515
5.13377
5.17178
5.20649
5.23865
5.26879
5.29714
5.32374
5.34829
5.37691
5.39136
5.38849
5.37735
5.37583
5.39677
5.43683
5.48274
5.67737
5.59321
5.53413
5.16528
5.20114
5.23383
5.26403
5.29223
5.3187
5.34357
5.36676
5.39345
5.41864
5.42456
5.42184
5.43338
5.47015
5.51685
5.54992
5.63445
5.53976
5.55068
5.19838
5.23184
5.2623
5.2904
5.31659
5.34118
5.36442
5.38668
5.40924
5.43659
5.50988
5.50207
5.48961
5.61383
5.65357
5.67443
5.53451
5.54354
5.55646
5.23314
5.26391
5.29195
5.3178
5.34188
5.36447
5.38581
5.40614
5.42564
5.44512
5.53177
5.56356
5.57596
5.64621
5.66348
5.57343
5.53962
5.54835
5.55788
5.26948
5.29733
5.32277
5.34626
5.36813
5.38862
5.40791
5.42612
5.4432
5.45876
5.47212
5.5689
5.58981
5.58276
5.53399
5.53509
5.5452
5.55261
5.55954
5.30726
5.33201
5.35472
5.37574
5.39532
5.41365
5.43084
5.447
5.4621
5.47587
5.48825
5.49908
5.56145
5.53208
5.53324
5.54442
5.55206
5.55795
5.56289
5.34622
5.36776
5.38765
5.40612
5.42334
5.43945
5.45453
5.46872
5.48199
5.49414
5.50538
5.51564
5.52548
5.53552
5.54509
5.55363
5.56001
5.56471
5.56816
5.38598
5.40429
5.42131
5.43715
5.45196
5.46581
5.4788
5.49104
5.5025
5.51307
5.52298
5.53218
5.54093
5.54935
5.55719
5.56414
5.56925
5.57293
5.57533
5.42615
5.44125
5.45537
5.46857
5.48096
5.49256
5.50348
5.5138
5.52349
5.5325
5.54102
5.54893
5.55645
5.56344
5.56983
5.57545
5.57953
5.58243
5.58414
5.4663
5.4783
5.48959
5.5002
5.51021
5.51961
5.52852
5.53699
5.54496
5.55243
5.5595
5.56606
5.57229
5.57792
5.58303
5.58743
5.59065
5.59291
5.59416
5.50613
5.51521
5.52379
5.53191
5.53964
5.54693
5.55391
5.56058
5.56687
5.57278
5.57837
5.58354
5.58841
5.59276
5.59668
5.59997
5.60244
5.60415
5.60509
5.54548
5.55184
5.55789
5.56366
5.5692
5.57448
5.57959
5.58449
5.58909
5.59342
5.59749
5.60126
5.6048
5.60793
5.61076
5.61306
5.61487
5.61608
5.61677
5.58428
5.58814
5.59181
5.59535
5.5988
5.60214
5.60539
5.60849
5.61141
5.61414
5.61673
5.61914
5.62139
5.62337
5.62516
5.6266
5.62776
5.62852
5.62901
5.62247
5.62398
5.6254
5.62679
5.62819
5.62957
5.63094
5.63225
5.63349
5.63468
5.63582
5.63689
5.63789
5.63878
5.63958
5.64022
5.64076
5.6411
5.6414
5.66013
5.65942
5.65866
5.65795
5.65732
5.65677
5.65628
5.65585
5.65547
5.65514
5.65487
5.65463
5.65441
5.65421
5.65404
5.65388
5.65381
5.65374
5.65389
5.69817
5.69545
5.69266
5.68996
5.68738
5.68496
5.68268
5.68054
5.67855
5.67671
5.67501
5.67343
5.67196
5.67062
5.66943
5.66841
5.66767
5.66716
5.6673
)
;

boundaryField
{
    leftWall
    {
        type            fixedFluxPressure;
        gradient        uniform 0;
        value           nonuniform List<scalar> 
50
(
912.063
913.179
915.337
917.498
919.751
922.924
927.312
933.568
943.291
785.028
550.251
605.329
944.043
1051.16
971.298
943.161
954.32
969.743
1015.43
1075.69
1096.24
679.906
422.799
702.737
832.729
874.256
915.157
363.64
8.83518
224.335
363.322
381.717
392.238
206.296
12.8266
8.20973
7.32881
7.37363
7.37942
7.2805
7.13846
6.97552
6.80623
6.63989
6.48046
6.32928
6.18624
6.05009
5.91962
5.79074
)
;
    }
    rightWall
    {
        type            fixedFluxPressure;
        gradient        uniform 0;
        value           nonuniform List<scalar> 
50
(
412.032
402.683
394.961
399.359
406.519
434.375
441.426
385.56
121.249
90.9687
103.102
171.242
187.26
111.63
58.0784
16.1448
5.96042
5.92533
6.05467
5.90777
5.78053
5.71263
5.68226
6.05788
6.36692
6.35308
6.33143
5.68252
5.44378
5.44217
5.43221
5.42738
5.46612
5.50515
5.53413
5.55068
5.55646
5.55788
5.55954
5.56289
5.56816
5.57533
5.58414
5.59416
5.60509
5.61677
5.62901
5.6414
5.65389
5.6673
)
;
    }
    lowerWall
    {
        type            fixedFluxPressure;
        gradient        uniform 0;
        value           nonuniform List<scalar> 
62
(
912.063
906.626
900.329
893.485
887.601
882.511
876.457
868.557
862
854.581
844.845
832.088
816.625
798.933
779.852
766.266
761.194
764.684
782.087
808.394
836.941
861.219
872.332
872.332
872.755
874.643
878.62
885.025
893.157
902.187
917.307
958.605
921.31
879.213
857.478
765.639
769.913
774.376
776.889
778.988
784.44
795.482
809.49
765.639
733.48
714.357
721.221
642.718
534.499
509.379
496.368
444.12
407.726
386.156
379.717
389.536
362.029
291.687
304.119
379.571
401.787
412.032
)
;
    }
    atmosphere
    {
        type            prghTotalPressure;
        rho             rho;
        psi             none;
        gamma           1;
        p0              uniform 0;
        value           nonuniform List<scalar> 
46
(
5.72904
5.72904
5.72904
5.72904
5.72904
5.72904
5.72904
5.72904
5.72904
5.72904
5.72904
5.72904
5.72904
5.72904
5.72904
5.72904
5.72904
5.72904
5.72904
5.72893
5.72825
5.72703
5.72534
5.72384
5.72275
5.72154
5.72023
5.71783
5.71419
5.71046
5.70688
5.70343
5.70015
5.69702
5.69403
5.69122
5.68861
5.68618
5.6839
5.68178
5.67979
5.67806
5.67652
5.6754
5.67458
5.67492
)
;
        rho             rho;
    }
    defaultFaces
    {
        type            empty;
    }
}


// ************************************************************************* //
