/*--------------------------------*- C++ -*----------------------------------*\
  =========                 |
  \\      /  F ield         | OpenFOAM: The Open Source CFD Toolbox
   \\    /   O peration     | Website:  https://openfoam.org
    \\  /    A nd           | Version:  13
     \\/     M anipulation  |
\*---------------------------------------------------------------------------*/
FoamFile
{
    format      ascii;
    class       surfaceScalarField;
    location    "0.95";
    object      phi;
}
// * * * * * * * * * * * * * * * * * * * * * * * * * * * * * * * * * * * * * //

dimensions      [0 3 -1 0 0 0 0];

internalField   nonuniform List<scalar> 
4432
(
2.79167e-06
-2.79167e-06
2.55146e-06
2.40208e-07
-9.13038e-07
3.4645e-06
-4.79741e-06
3.88437e-06
-5.34424e-06
5.46829e-07
-2.99215e-06
-2.35209e-06
-1.21227e-06
-1.77989e-06
-1.47735e-06
2.65088e-07
-3.02585e-06
1.5485e-06
-5.22809e-06
2.20224e-06
-7.65762e-06
2.42954e-06
-9.69615e-06
2.03851e-06
-1.0317e-05
6.20845e-07
-9.16461e-06
-1.15236e-06
-9.14924e-06
-1.53721e-08
-1.37947e-05
4.6455e-06
-2.13369e-05
7.54214e-06
-2.54415e-05
4.10465e-06
-2.34333e-05
-2.00816e-06
-1.87817e-05
-4.65167e-06
-1.34631e-05
-5.31853e-06
-6.58523e-06
-6.87793e-06
-6.58522e-06
-2.50437e-06
-2.87299e-07
-5.69793e-06
3.43376e-06
-8.56641e-06
6.33298e-06
-9.18286e-06
4.50081e-06
-7.03516e-06
-1.60088e-06
-3.76032e-06
-5.62692e-06
-1.66417e-06
-3.87604e-06
-1.7581e-06
3.59017e-07
-3.37564e-06
3.16604e-06
-5.63205e-06
4.45863e-06
-7.95093e-06
4.74842e-06
-1.00198e-05
4.10742e-06
-1.2005e-05
2.60601e-06
-1.4473e-05
1.31565e-06
-1.76401e-05
3.15174e-06
-2.06183e-05
7.62372e-06
-2.10579e-05
7.98173e-06
-1.79741e-05
1.0208e-06
-1.41142e-05
-5.86801e-06
-1.16022e-05
-7.16374e-06
-8.77296e-06
-8.14774e-06
-4.50078e-06
-1.11501e-05
-1.1086e-05
-4.62653e-06
4.33923e-06
-8.50126e-06
7.30848e-06
-1.03171e-05
8.14886e-06
-9.96229e-06
4.14596e-06
-7.72903e-06
-3.83415e-06
-4.41639e-06
-8.93956e-06
-2.19581e-06
-6.09662e-06
-2.25415e-06
4.17355e-07
-3.67951e-06
4.59141e-06
-5.57903e-06
6.35813e-06
-7.22991e-06
6.39932e-06
-8.41399e-06
5.2915e-06
-9.5693e-06
3.76133e-06
-1.13486e-05
3.09499e-06
-1.30702e-05
4.87325e-06
-1.277e-05
7.32357e-06
-9.75746e-06
4.9692e-06
-6.90389e-06
-1.83278e-06
-5.94584e-06
-6.82604e-06
-5.78934e-06
-7.32024e-06
-5.07357e-06
-8.8635e-06
-2.88821e-06
-1.33355e-05
-1.39742e-05
-4.26427e-06
8.60351e-06
-7.49596e-06
1.05402e-05
-8.89891e-06
9.55181e-06
-8.74658e-06
3.99364e-06
-6.76695e-06
-5.81378e-06
-3.79705e-06
-1.19094e-05
-2.28457e-06
-7.6091e-06
-2.89922e-06
1.032e-06
-4.56547e-06
6.25767e-06
-6.57772e-06
8.37037e-06
-8.17513e-06
7.99673e-06
-8.9138e-06
6.03017e-06
-8.79043e-06
3.63796e-06
-7.93947e-06
2.24405e-06
-6.18895e-06
3.12273e-06
-3.23226e-06
4.36688e-06
-8.43836e-07
2.58077e-06
-6.17876e-07
-2.05875e-06
-2.99837e-06
-4.44553e-06
-4.95326e-06
-5.36537e-06
-5.28001e-06
-8.53674e-06
-3.19626e-06
-1.54192e-05
-1.71705e-05
-2.7152e-06
1.13187e-05
-4.83983e-06
1.26648e-05
-5.75214e-06
1.04641e-05
-5.47856e-06
3.72006e-06
-3.58105e-06
-7.7113e-06
-1.5965e-06
-1.3894e-05
-1.53008e-06
-7.67551e-06
-3.21857e-06
2.72048e-06
-5.48687e-06
8.52599e-06
-7.86536e-06
1.07489e-05
-9.72707e-06
9.85845e-06
-1.05097e-05
6.81282e-06
-9.88696e-06
3.01522e-06
-7.62406e-06
-1.8837e-08
-4.06168e-06
-4.39662e-07
-4.46501e-07
7.51702e-07
1.37726e-06
7.57026e-07
1.56855e-07
-8.38357e-07
-3.07158e-06
-1.21709e-06
-6.19997e-06
-2.237e-06
-7.05106e-06
-7.68563e-06
-4.26832e-06
-1.8202e-05
-2.14388e-05
-7.03248e-07
1.2022e-05
-1.35443e-06
1.3316e-05
-1.50186e-06
1.06115e-05
-5.91004e-07
2.80921e-06
1.62532e-06
-9.92763e-06
2.14505e-06
-1.44137e-05
2.62836e-07
-5.79329e-06
-2.3423e-06
5.32561e-06
-5.27712e-06
1.14608e-05
-8.2005e-06
1.36722e-05
-1.05823e-05
1.22403e-05
-1.17356e-05
7.96617e-06
-1.11381e-05
2.41766e-06
-8.40342e-06
-2.75351e-06
-4.35535e-06
-4.48773e-06
-5.99032e-07
-3.00463e-06
1.34714e-06
-1.18914e-06
7.48132e-07
-2.39352e-07
-2.30785e-06
1.8389e-06
-6.38845e-06
1.8436e-06
-8.05061e-06
-6.02347e-06
-5.00509e-06
-2.12475e-05
-2.64439e-05
1.57351e-06
1.04484e-05
2.44528e-06
1.24442e-05
3.24033e-06
9.81648e-06
5.53002e-06
5.19531e-07
7.78101e-06
-1.21786e-05
7.02934e-06
-1.36621e-05
4.14209e-06
-2.90604e-06
5.08009e-07
8.9597e-06
-3.15596e-06
1.51248e-05
-6.82691e-06
1.73432e-05
-9.78509e-06
1.51984e-05
-1.14343e-05
9.61535e-06
-1.09605e-05
1.94386e-06
-7.48941e-06
-6.22456e-06
-2.65863e-06
-9.31852e-06
9.44674e-07
-6.60794e-06
2.68993e-06
-2.93439e-06
2.08003e-06
3.70547e-07
-1.26889e-06
5.18783e-06
-6.01464e-06
6.58934e-06
-8.48774e-06
-3.55037e-06
-5.89034e-06
-2.38449e-05
-3.23342e-05
3.83439e-06
6.61405e-06
6.27939e-06
9.99922e-06
8.8661e-06
7.22977e-06
1.21472e-05
-2.7616e-06
1.33397e-05
-1.33711e-05
1.09028e-05
-1.12251e-05
7.62834e-06
3.68401e-07
2.68884e-06
1.38992e-05
-2.06647e-06
1.98801e-05
-6.30487e-06
2.15816e-05
-9.24847e-06
1.8142e-05
-1.06765e-05
1.10434e-05
-9.79233e-06
1.05965e-06
-5.66584e-06
-1.0351e-05
-1.27636e-06
-1.3708e-05
1.07692e-06
-8.96122e-06
2.03224e-06
-3.88969e-06
1.14087e-06
1.26191e-06
-2.94673e-06
9.27544e-06
-7.8139e-06
1.14565e-05
-1.00521e-05
-1.31216e-06
-8.39417e-06
-2.55028e-05
-4.07284e-05
-3.43425e-06
3.43425e-06
-1.79777e-05
1.45434e-05
-1.40189e-05
-3.9588e-06
9.05649e-06
-2.30754e-05
2.77987e-05
-1.87422e-05
2.76726e-05
1.26112e-07
1.6914e-05
1.07586e-05
2.93626e-06
1.39777e-05
-6.20278e-06
9.13903e-06
-1.44553e-05
8.25249e-06
-1.91226e-05
4.66733e-06
-1.4101e-05
-5.0216e-06
2.32186e-06
-1.64229e-05
2.52056e-05
-2.28838e-05
2.86829e-05
-3.47729e-06
5.85376e-06
2.28292e-05
-1.40385e-05
1.98922e-05
-1.15671e-05
-2.47131e-06
-1.15672e-05
-1.2021e-05
1.54553e-05
-1.91179e-05
2.16404e-05
-1.30452e-05
-1.00315e-05
3.82082e-06
-3.99415e-05
1.81677e-05
-3.30891e-05
1.69412e-05
1.35262e-06
6.47769e-06
2.12221e-05
-7.09258e-06
2.7548e-05
-2.11174e-05
2.31638e-05
-3.39798e-05
2.11149e-05
-4.0502e-05
1.11896e-05
-3.82577e-05
-7.26595e-06
-2.5123e-05
-2.95575e-05
-5.45527e-06
-4.25515e-05
1.32877e-05
-2.22202e-05
1.28384e-05
2.32784e-05
-6.25859e-07
3.33565e-05
-4.97415e-06
1.87699e-06
-1.65413e-05
-1.27696e-05
2.82249e-05
-1.67992e-05
2.56699e-05
-1.20283e-05
-1.48024e-05
1.99566e-07
-5.21693e-05
2.38062e-06
-3.52701e-05
-5.16051e-06
8.89376e-06
-1.77349e-05
3.37964e-05
-3.22221e-05
4.20353e-05
-4.82042e-05
3.91458e-05
-5.80466e-05
3.09573e-05
-6.29988e-05
1.61418e-05
-6.28748e-05
-7.38993e-06
-5.26858e-05
-3.97465e-05
-2.98889e-05
-6.53484e-05
-8.01155e-06
-4.40975e-05
6.7561e-06
8.51078e-06
6.26731e-06
3.38453e-05
2.68053e-06
5.46378e-06
-1.38608e-05
-1.02878e-05
3.85127e-05
-1.4542e-05
2.99241e-05
-1.20388e-05
-1.73055e-05
-3.66254e-06
-6.05456e-05
-9.63358e-06
-2.92991e-05
-3.1248e-05
3.05081e-05
-5.17704e-05
5.43188e-05
-6.21454e-05
5.24103e-05
-6.83056e-05
4.5306e-05
-7.53082e-05
3.79599e-05
-8.59847e-05
2.68183e-05
-9.15878e-05
-1.78678e-06
-8.13229e-05
-5.00115e-05
-5.45118e-05
-9.21595e-05
-3.14072e-05
-6.72021e-05
-1.05945e-05
-1.2302e-05
3.10425e-07
2.29403e-05
-8.92623e-07
6.66683e-06
-1.47534e-05
-6.48522e-06
4.49979e-05
-1.13117e-05
3.47505e-05
-1.31214e-05
-1.54958e-05
-1.39546e-05
-5.97124e-05
-3.53419e-05
-7.91186e-06
-6.25829e-05
5.77491e-05
-7.21162e-05
6.38522e-05
-7.09174e-05
5.12115e-05
-7.89555e-05
5.33441e-05
-9.9772e-05
5.87765e-05
-0.000125183
5.22297e-05
-0.000135454
8.48353e-06
-0.000113637
-7.18287e-05
-7.87422e-05
-0.000127054
-5.03164e-05
-9.56279e-05
-2.99735e-05
-3.26449e-05
-1.47936e-05
7.76043e-06
-6.54302e-06
-1.58369e-06
-2.12964e-05
-1.47096e-06
4.64689e-05
-5.8552e-06
3.91347e-05
-1.1461e-05
-9.88994e-06
-2.53629e-05
-4.58105e-05
-5.52774e-05
2.20026e-05
-7.92151e-05
8.16869e-05
-7.64561e-05
6.10931e-05
-7.59326e-05
5.0688e-05
-9.65998e-05
7.40113e-05
-0.000129046
9.12229e-05
-0.000162453
8.56364e-05
-0.00016951
1.55403e-05
-0.000138859
-0.000102479
-0.000103722
-0.000162191
-6.94405e-05
-0.000129909
-4.38481e-05
-5.82373e-05
-2.57188e-05
-1.03689e-05
-9.00682e-06
-1.82957e-05
-3.03033e-05
6.42116e-06
4.00477e-05
4.09816e-06
4.14577e-05
-7.28118e-07
-5.06366e-06
-2.08167e-05
-2.57219e-05
-5.35234e-05
5.47093e-05
-7.82875e-05
0.000106451
-7.71356e-05
5.99412e-05
-8.49118e-05
5.84642e-05
-0.000113941
0.00010304
-0.00015558
0.000132863
-0.000187247
0.000117303
-0.000186121
1.44134e-05
-0.000165795
-0.000122805
-0.00013382
-0.000194166
-9.53686e-05
-0.00016836
-5.44757e-05
-9.91303e-05
-2.67637e-05
-3.80808e-05
-8.95908e-06
-3.61003e-05
-3.92623e-05
1.26235e-05
2.74242e-05
1.60129e-05
3.80684e-05
9.77132e-06
1.1779e-06
-2.52477e-06
-1.34258e-05
-2.99612e-05
8.21457e-05
-5.73582e-05
0.000133848
-5.954e-05
6.2123e-05
-7.66426e-05
7.55668e-05
-0.000123151
0.000149549
-0.000169405
0.000179117
-0.000191675
0.000139574
-0.000188837
1.15749e-05
-0.000184143
-0.000127499
-0.000169303
-0.000209007
-0.000137462
-0.000200201
-9.02334e-05
-0.000146359
-4.8664e-05
-7.96501e-05
-1.93382e-05
-6.54261e-05
-5.86006e-05
1.74941e-05
-1.08801e-05
2.71467e-05
3.46639e-07
3.44061e-05
-2.96914e-08
3.92118e-05
-7.56724e-06
3.33087e-05
-7.46802e-06
2.23908e-05
-3.0717e-07
1.02006e-05
1.25585e-05
-1.51416e-05
3.92414e-05
-3.91565e-05
4.38951e-05
-5.08014e-05
3.32264e-05
-4.87555e-05
1.60962e-05
-4.35655e-05
5.8534e-06
-3.89541e-05
-3.55176e-06
-2.89051e-05
-2.04001e-05
-1.81894e-05
-2.44236e-05
-1.38999e-05
-1.32507e-05
-1.44488e-05
-3.34079e-06
-2.44547e-05
1.12678e-05
-3.74298e-05
2.22505e-05
-4.28221e-05
1.68489e-05
-3.78266e-05
-6.30774e-06
-3.20682e-05
-3.12612e-05
-6.17095e-05
-1.10871e-05
2.76895e-05
-3.85696e-05
4.26422e-05
-1.4606e-05
4.88736e-05
-6.26106e-06
4.58438e-05
-4.53748e-06
2.7697e-05
1.06788e-05
4.70834e-06
2.26815e-05
-1.54579e-05
3.27248e-05
-6.51625e-05
8.8946e-05
-0.000114104
9.28363e-05
-0.000127696
4.68185e-05
-0.000127743
1.61438e-05
-0.000127235
5.34461e-06
-0.000115373
-1.54133e-05
-9.07774e-05
-4.49958e-05
-7.3196e-05
-4.2005e-05
-8.66554e-05
2.08719e-07
-0.000112487
2.24903e-05
-0.000132835
3.16161e-05
-0.000131502
2.0918e-05
-0.000110659
-3.99479e-06
-8.84718e-05
-2.84945e-05
-6.24735e-05
-5.72596e-05
-0.000100633
-2.35502e-05
3.81154e-05
-7.6685e-05
4.75387e-05
-2.40293e-05
4.02168e-05
1.06089e-06
1.80519e-05
1.76273e-05
-8.23272e-07
2.9554e-05
-2.00274e-06
2.3861e-05
-5.74575e-05
8.81796e-05
-0.000160158
0.000191646
-0.000213068
0.000145747
-0.000218764
5.25141e-05
-0.000220509
1.7889e-05
-0.000221567
6.40212e-06
-0.000217299
-1.9681e-05
-0.000199532
-6.2763e-05
-0.000189868
-5.16683e-05
-0.000193359
3.69934e-06
-0.000199462
2.85935e-05
-0.000186626
1.87803e-05
-0.000162829
-2.87962e-06
-0.00014142
-2.54033e-05
-0.000123059
-4.68555e-05
-9.58735e-05
-8.44453e-05
-0.000139855
-5.66516e-05
-3.49925e-06
-7.31858e-05
-2.04714e-05
-7.05718e-06
-2.92176e-05
9.80706e-06
-1.7893e-05
6.30279e-06
-4.87148e-06
1.65324e-05
-2.61005e-05
4.509e-05
-8.40916e-05
0.000146171
-0.000125198
0.000232753
-0.000179533
0.000200082
-0.000236736
0.000109717
-0.000269535
5.06875e-05
-0.000279793
1.66599e-05
-0.000275329
-2.41449e-05
-0.000251849
-8.62429e-05
-0.000230496
-7.30215e-05
-0.000215797
-1.09998e-05
-0.000209091
2.18877e-05
-0.000200997
1.06864e-05
-0.00018426
-1.96164e-05
-0.000155529
-5.41342e-05
-0.000129816
-7.25691e-05
-0.000105357
-0.000108904
-0.000161642
-8.35699e-05
-6.50462e-05
-8.13958e-06
-0.000110796
3.86923e-05
-0.000130594
2.96052e-05
-0.000149922
2.56305e-05
-0.000153054
1.96653e-05
-0.000141718
3.37539e-05
-8.88574e-05
9.33098e-05
-2.93701e-05
0.000173265
-3.24983e-05
0.00020321
-9.46922e-05
0.000171911
-0.000160746
0.000116741
-0.000238402
9.43164e-05
-0.000296262
3.37151e-05
-0.000322335
-6.01705e-05
-0.000313088
-8.22679e-05
-0.000296508
-2.75803e-05
-0.000284622
1.0002e-05
-0.000256942
-1.69937e-05
-0.000210785
-6.57738e-05
-0.000166304
-9.86151e-05
-0.000138987
-9.9886e-05
-0.000128247
-0.000119644
-0.000172566
-0.000117323
-6.89077e-05
6.07681e-05
-0.000162733
0.000132518
-0.000280775
0.000147647
-0.000290555
3.54107e-05
-0.000264862
-6.02819e-06
-0.000223598
-7.50919e-06
-0.000156865
2.65762e-05
-5.90482e-05
7.54487e-05
1.81419e-05
0.00012602
2.68713e-05
0.000163182
-4.50956e-05
0.000188708
-0.000197019
0.00024624
-0.000334597
0.000171292
-0.000417167
2.23998e-05
-0.000440712
-5.87235e-05
-0.000408577
-5.97153e-05
-0.000326461
-7.21135e-05
-0.000247822
-9.56333e-05
-0.000189685
-0.000123911
-0.000159087
-0.000129213
-0.000147815
-0.000111157
-0.000156005
-0.000111454
-0.000179319
-0.000149252
-4.22199e-05
0.000102988
-0.000105025
0.000195323
-0.00021638
0.000259002
-0.000265423
8.44537e-05
-0.000279813
8.36137e-06
-0.000278365
-8.95682e-06
-0.000237977
-1.38118e-05
-0.000177254
1.47254e-05
-0.000106529
5.52955e-05
-6.19813e-05
0.000118634
-7.96682e-05
0.000206395
-0.000164222
0.000330793
-0.000232072
0.000239143
-0.000281404
7.17322e-05
-0.000309992
-3.01361e-05
-0.000294229
-7.54775e-05
-0.000248687
-0.000117656
-0.000204256
-0.000140064
-0.000174718
-0.000153448
-0.000157963
-0.000145968
-0.000165843
-0.000103277
-0.000171097
-0.000106201
-0.000182448
-0.000167968
-3.15684e-05
0.000134557
-7.55426e-05
0.000239297
-0.000143081
0.000326541
-0.000184881
0.000126254
-0.000230098
5.35778e-05
-0.000250021
1.09664e-05
-0.00024581
-1.80225e-05
-0.00022282
-8.26479e-06
-0.000196773
2.9249e-05
-0.000174789
9.66494e-05
-0.000183274
0.00021488
-0.00019319
0.000340708
-0.000205384
0.000251337
-0.000222803
8.9151e-05
-0.000240445
-1.24942e-05
-0.000236852
-7.90709e-05
-0.000226022
-0.000128486
-0.000204657
-0.000161429
-0.000182294
-0.000175812
-0.000175937
-0.000152325
-0.000184699
-9.45154e-05
-0.000168084
-0.000122816
-0.000171981
-0.000178551
-2.63364e-05
0.000160893
-6.00015e-05
0.000272962
-0.000141976
0.000408515
-0.00021857
0.000202847
-0.000279328
0.000114336
-0.000309804
4.14423e-05
-0.000312168
-1.56587e-05
-0.000286998
-3.34353e-05
-0.000261776
4.02712e-06
-0.000264292
9.91658e-05
-0.000274985
0.000225573
-0.000240808
0.000306531
-0.000200964
0.000211493
-0.000181019
6.92057e-05
-0.000174038
-1.94748e-05
-0.000174109
-7.89997e-05
-0.000178235
-0.00012436
-0.000191299
-0.000148364
-0.000207208
-0.000159903
-0.000205795
-0.000153738
-0.000170317
-0.000129993
-0.000156709
-0.000136424
-0.000157023
-0.000171667
-2.10583e-05
0.000181951
-5.61289e-05
0.000308033
-0.00012922
0.000481606
-0.000209351
0.000282978
-0.000272589
0.000177574
-0.000317982
8.68354e-05
-0.000353641
2.00001e-05
-0.000377351
-9.72521e-06
-0.00038334
1.00156e-05
-0.000374226
9.00525e-05
-0.000339951
0.000191298
-0.000259198
0.000225778
-0.000190478
0.000142773
-0.000157723
3.6451e-05
-0.000143164
-3.40338e-05
-0.000140273
-8.18903e-05
-0.000147769
-0.000116864
-0.000159411
-0.000136723
-0.000170692
-0.000148622
-0.00017233
-0.000152101
-0.000154493
-0.000147829
-0.000143733
-0.000147185
-0.000146401
-0.000154355
-1.7813e-05
0.000199764
-6.58276e-05
0.000356047
-0.000115289
0.000531067
-0.000171326
0.000339016
-0.000208554
0.000214803
-0.000239134
0.000117415
-0.000282779
6.36447e-05
-0.000335086
4.25824e-05
-0.000371871
4.68e-05
-0.000366564
8.47461e-05
-0.00031066
0.000135393
-0.000223832
0.00013895
-0.000155774
7.47139e-05
-0.000121913
2.59033e-06
-0.000107765
-4.81826e-05
-0.000103989
-8.56664e-05
-0.000108695
-0.000112158
-0.000116237
-0.00012918
-0.000124666
-0.000140192
-0.000131899
-0.000144868
-0.000134264
-0.000145465
-0.000134714
-0.000146734
-0.000145849
-0.000135267
-1.69502e-05
0.000216714
-7.63468e-05
0.000415444
-0.000109078
0.000563799
-0.000139447
0.000369384
-0.000155277
0.000230633
-0.000176761
0.0001389
-0.000213155
0.000100038
-0.000255356
8.47838e-05
-0.000286215
7.76585e-05
-0.000284539
8.30702e-05
-0.000237828
8.86825e-05
-0.00016861
6.97316e-05
-0.000116955
2.30586e-05
-9.02808e-05
-2.40836e-05
-7.68335e-05
-6.16297e-05
-7.27485e-05
-8.97513e-05
-7.52873e-05
-0.000109619
-8.14412e-05
-0.000123027
-8.85684e-05
-0.000133065
-9.61485e-05
-0.000137288
-0.00010487
-0.000136744
-0.000114154
-0.00013745
-0.000142082
-0.000117921
-1.61875e-05
0.000232902
-8.59817e-05
0.000485238
-0.000103696
0.000581513
-0.000118834
0.000384522
-0.000130118
0.000241916
-0.000158256
0.000167038
-0.00019691
0.000138692
-0.000230198
0.000118072
-0.000247716
9.51767e-05
-0.000240108
7.54621e-05
-0.000206353
5.49273e-05
-0.000162231
2.5609e-05
-0.000127123
-1.2049e-05
-0.000103337
-4.78693e-05
-8.70603e-05
-7.79065e-05
-7.607e-05
-0.000100742
-6.93759e-05
-0.000116313
-6.64954e-05
-0.000125907
-6.81844e-05
-0.000131376
-7.19184e-05
-0.000133554
-7.70333e-05
-0.000131629
-8.39793e-05
-0.000130504
-0.000135333
-9.07277e-05
-2.02413e-05
0.000253143
-8.60469e-05
0.000551043
-9.69865e-05
0.000592453
-0.000108436
0.000395972
-0.000130929
0.000264409
-0.000175364
0.000211473
-0.000222424
0.000185752
-0.000256461
0.000152109
-0.000271456
0.000110171
-0.000264125
6.81314e-05
-0.000238064
2.88659e-05
-0.00020227
-1.01847e-05
-0.000167683
-4.66354e-05
-0.000137828
-7.77248e-05
-0.000113521
-0.000102214
-9.42979e-05
-0.000119965
-7.92892e-05
-0.000131322
-6.81794e-05
-0.000137016
-6.13134e-05
-0.000138242
-5.84767e-05
-0.000136391
-5.72716e-05
-0.000132834
-5.76236e-05
-0.000130152
-0.000130253
-6.27044e-05
-2.24406e-05
0.000275584
-8.01084e-05
0.000608711
-9.02016e-05
0.000602546
-0.000108394
0.000414164
-0.000150784
0.000306799
-0.000213359
0.000274048
-0.000271343
0.000243736
-0.000310731
0.000191496
-0.000325796
0.000125236
-0.000316046
5.83813e-05
-0.000286634
-5.46231e-07
-0.000246439
-5.03792e-05
-0.00020391
-8.91647e-05
-0.000165112
-0.000116523
-0.000132953
-0.000134372
-0.000107622
-0.000145296
-8.80155e-05
-0.000150928
-7.27856e-05
-0.000152246
-6.1076e-05
-0.000149951
-5.2512e-05
-0.000144955
-4.65169e-05
-0.000138829
-4.31747e-05
-0.000133494
-0.00012929
-4.41372e-05
-2.1424e-05
0.000297008
-7.11033e-05
0.00065839
-8.50943e-05
0.000616537
-0.000117817
0.000446887
-0.000183264
0.000372247
-0.000264334
0.000355118
-0.000333723
0.000313125
-0.000376795
0.000234569
-0.000391055
0.000139496
-0.000377955
4.52808e-05
-0.000343405
-3.50955e-05
-0.000294725
-9.90595e-05
-0.000239537
-0.000144353
-0.000187457
-0.000168603
-0.000144787
-0.000177042
-0.000112517
-0.000177565
-8.9036e-05
-0.00017441
-7.20779e-05
-0.000169204
-5.96266e-05
-0.000162403
-5.01064e-05
-0.000154475
-4.29502e-05
-0.000145985
-3.84911e-05
-0.000137954
-0.000130718
-3.70632e-05
-1.60123e-05
0.00031302
-5.96466e-05
0.000702025
-8.1683e-05
0.000638573
-0.00013199
0.000497194
-0.000217102
0.000457359
-0.000309226
0.000447242
-0.000378792
0.000382691
-0.000415888
0.000271665
-0.000425393
0.000149001
-0.00041074
3.06282e-05
-0.000379412
-6.6423e-05
-0.000330612
-0.00014786
-0.00026804
-0.000206924
-0.000204006
-0.000232636
-0.000150034
-0.000231015
-0.000110349
-0.00021725
-8.2926e-05
-0.000201832
-6.44753e-05
-0.000187655
-5.22689e-05
-0.000174609
-4.41853e-05
-0.000162558
-3.87008e-05
-0.00015147
-3.52949e-05
-0.00014136
-0.000132064
-3.39494e-05
-6.73853e-06
0.000319758
-4.19971e-05
0.000737284
-7.72297e-05
0.000673806
-0.000139587
0.000559551
-0.000229395
0.000547167
-0.000313263
0.00053111
-0.000365145
0.000434573
-0.000386123
0.000292642
-0.000390252
0.00015313
-0.000379358
1.97337e-05
-0.000359221
-8.65595e-05
-0.000321158
-0.000185924
-0.000265955
-0.000262127
-0.000201825
-0.000296766
-0.000142389
-0.000290452
-9.82896e-05
-0.000261349
-6.91713e-05
-0.000230951
-5.08294e-05
-0.000205997
-3.96097e-05
-0.000185829
-3.31215e-05
-0.000169047
-2.96753e-05
-0.000154916
-2.82587e-05
-0.000142777
-0.000132015
-2.83076e-05
8.94202e-07
0.000318864
-3.51274e-05
0.000773305
-7.00288e-05
0.000708708
-0.000129663
0.000619185
-0.000204226
0.00062173
-0.000262518
0.000589402
-0.000289916
0.000461972
-0.000297064
0.000299791
-0.000293621
0.000149687
-0.000288483
1.45959e-05
-0.000269093
-0.000105949
-0.000238757
-0.00021626
-0.000203802
-0.000297081
-0.000160047
-0.000340522
-0.000110937
-0.000339561
-7.08678e-05
-0.000301419
-4.5131e-05
-0.000256687
-3.04026e-05
-0.000220725
-2.2399e-05
-0.000193833
-1.85338e-05
-0.000172912
-1.72988e-05
-0.000156151
-1.77453e-05
-0.00014233
-0.000130515
-1.92457e-05
-2.18411e-05
0.000340705
-3.26075e-05
0.000784071
-5.5335e-05
0.000731435
-9.70109e-05
0.000660861
-0.000143549
0.000668268
-0.000174333
0.000620186
-0.000182894
0.000470532
-0.000180279
0.000297176
-0.000171265
0.000140672
-0.000153329
-3.3392e-06
-0.000117904
-0.000141374
-8.67812e-05
-0.000247383
-7.10012e-05
-0.000312861
-6.1452e-05
-0.000350071
-4.50785e-05
-0.000355934
-2.43827e-05
-0.000322114
-1.0121e-05
-0.000270949
-3.412e-06
-0.000227434
-1.34378e-06
-0.000195901
-1.6448e-06
-0.000172611
-3.29058e-06
-0.000154505
-5.68965e-06
-0.000139931
-0.000127674
-8.53044e-06
-3.42206e-05
0.000374926
-1.29493e-05
0.0007628
-2.8686e-05
0.000747172
-4.22009e-05
0.000674376
-5.80842e-05
0.000684151
-6.23155e-05
0.000624418
-5.47079e-05
0.000462925
-3.52382e-05
0.000277706
-6.67397e-06
0.000112108
2.86072e-05
-3.862e-05
6.5486e-05
-0.000178253
9.34045e-05
-0.000275301
9.72742e-05
-0.000316731
7.74121e-05
-0.000330209
5.37853e-05
-0.000332307
4.13514e-05
-0.000309681
3.54987e-05
-0.000265096
2.96239e-05
-0.00022156
2.33459e-05
-0.000189623
1.7332e-05
-0.000166597
1.18192e-05
-0.000148993
6.80966e-06
-0.000134922
-0.000123198
2.33346e-06
-1.01364e-05
0.000385062
2.79477e-05
0.000724716
1.1925e-05
0.000763194
1.66224e-05
0.000669679
2.8522e-05
0.000672252
5.57199e-05
0.00059722
8.674e-05
0.000431905
0.000123437
0.00024101
0.000169988
6.55562e-05
0.000219811
-8.84425e-05
0.000255553
-0.000213995
0.000267365
-0.000287113
0.00025249
-0.000301855
0.000213022
-0.000290741
0.000159835
-0.00027912
0.00011406
-0.000263906
8.32729e-05
-0.000234309
6.25366e-05
-0.000200823
4.72443e-05
-0.000174331
3.54672e-05
-0.00015482
2.6163e-05
-0.000139688
1.86392e-05
-0.000127398
-0.000117034
1.2476e-05
1.64467e-05
0.000368616
4.28935e-05
0.000698269
3.76279e-05
0.00076846
4.42736e-05
0.000663033
7.58683e-05
0.000640657
0.000132938
0.00054015
0.000194505
0.000370339
0.000257272
0.000178242
0.000324249
-1.42023e-06
0.000387346
-0.000151539
0.000421035
-0.000247684
0.000410619
-0.000276697
0.000368618
-0.000259854
0.000308115
-0.000230238
0.000237659
-0.000208664
0.000171711
-0.000197958
0.00012235
-0.000184948
8.95815e-05
-0.000168055
6.71769e-05
-0.000151926
5.09065e-05
-0.000138549
3.85963e-05
-0.000127378
2.90037e-05
-0.000117805
-0.000109411
2.13803e-05
2.59004e-05
0.000342715
4.49465e-05
0.000679223
4.68912e-05
0.000766515
3.32541e-05
0.000676671
7.72534e-05
0.000596658
0.000163895
0.000453508
0.000264399
0.000269835
0.000362443
8.01988e-05
0.000452638
-9.16152e-05
0.000514652
-0.000213553
0.000524816
-0.000257848
0.00048675
-0.00023863
0.000419609
-0.000192713
0.000341227
-0.000151856
0.000262951
-0.000130388
0.000193712
-0.00012872
0.000141364
-0.0001326
0.000105279
-0.000131971
8.02385e-05
-0.000126885
6.19718e-05
-0.000120283
4.81068e-05
-0.000113513
3.72951e-05
-0.000106993
-0.000100822
2.8706e-05
3.15377e-05
0.000311177
6.26956e-05
0.000648065
7.36689e-05
0.000755542
5.68302e-05
0.000693509
0.000118126
0.000535362
0.000226043
0.000345591
0.000339847
0.00015603
0.00044109
-2.1043e-05
0.000518486
-0.000169011
0.000550826
-0.000245893
0.000524061
-0.000231083
0.000459519
-0.000174089
0.000380803
-0.000113997
0.000303797
-7.48503e-05
0.000235815
-6.24058e-05
0.000180983
-7.38877e-05
0.000139727
-9.13434e-05
0.00010907
-0.000101314
8.60157e-05
-0.00010383
6.82913e-05
-0.000102558
5.43752e-05
-9.95969e-05
4.32725e-05
-9.58903e-05
-9.18559e-05
3.43069e-05
4.24386e-05
0.000268739
0.000101841
0.000588663
0.000149123
0.00070826
0.000187792
0.00065484
0.000251907
0.000471247
0.000329453
0.000268045
0.000408267
7.72162e-05
0.000471229
-8.40055e-05
0.000496308
-0.00019409
0.000475214
-0.000224799
0.000413737
-0.000169607
0.000339938
-0.00010029
0.000273612
-4.76709e-05
0.000220437
-2.16758e-05
0.000181232
-2.3201e-05
0.000152494
-4.51496e-05
0.000127564
-6.64131e-05
0.000105308
-7.90575e-05
8.63727e-05
-8.48955e-05
7.06791e-05
-8.68645e-05
5.77406e-05
-8.66585e-05
4.70598e-05
-8.52095e-05
-8.30131e-05
3.8217e-05
4.03068e-05
0.000228432
0.000110157
0.000518813
0.00018217
0.000636248
0.000251051
0.000585958
0.000311538
0.000410761
0.000367818
0.000211765
0.000414121
3.09134e-05
0.000427757
-9.76418e-05
0.000393757
-0.00016009
0.000328632
-0.000159674
0.000262532
-0.000103507
0.000209025
-4.67829e-05
0.000171331
-9.97732e-06
0.000150098
-4.41994e-07
0.000140108
-1.32118e-05
0.000129184
-3.42256e-05
0.00011452
-5.17487e-05
9.86189e-05
-6.31565e-05
8.36411e-05
-6.99177e-05
7.03549e-05
-7.35783e-05
5.88517e-05
-7.51554e-05
4.90042e-05
-7.5362e-05
-7.46317e-05
4.06227e-05
1.69355e-05
0.000211496
9.33665e-05
0.000442382
0.000174068
0.000555546
0.000250996
0.00050903
0.000310942
0.000350815
0.000356622
0.000166085
0.000370223
1.73129e-05
0.000336734
-6.41534e-05
0.00027097
-9.43258e-05
0.0002001
-8.88038e-05
0.000152081
-5.54879e-05
0.000126181
-2.08825e-05
0.000116981
-7.77913e-07
0.000117501
-9.62078e-07
0.000118063
-1.37736e-05
0.000112817
-2.89796e-05
0.000102943
-4.18747e-05
9.12194e-05
-5.14333e-05
7.9421e-05
-5.81193e-05
6.83612e-05
-6.25185e-05
5.83639e-05
-6.5158e-05
4.95132e-05
-6.65113e-05
-6.68968e-05
4.17782e-05
-4.7902e-06
0.000216287
5.89894e-05
0.000378602
0.00014744
0.000467095
0.000234369
0.000422101
0.000297643
0.00028754
0.000323249
0.00014048
0.00030073
3.98315e-05
0.000250565
-1.39883e-05
0.000192516
-3.6277e-05
0.00014153
-3.78174e-05
0.000110857
-2.48154e-05
9.90026e-05
-9.02784e-06
0.000100191
-1.96651e-06
0.000104414
-5.18529e-06
0.000104979
-1.43384e-05
0.000100742
-2.47427e-05
9.31997e-05
-3.43326e-05
8.41337e-05
-4.23673e-05
7.46614e-05
-4.8647e-05
6.54322e-05
-5.32893e-05
5.68088e-05
-5.65345e-05
4.89608e-05
-5.86634e-05
-5.98819e-05
4.19459e-05
-4.30382e-06
0.000220591
3.78248e-05
0.000336474
0.000122877
0.000382043
0.000211088
0.00033389
0.000264372
0.000234257
0.000268165
0.000136686
0.000239392
6.86049e-05
0.000198628
2.67756e-05
0.00015864
3.71126e-06
0.000126069
-5.24661e-06
0.000105926
-4.672e-06
9.84174e-05
-1.51974e-06
9.78161e-05
-1.36524e-06
9.80386e-05
-5.40778e-06
9.59733e-05
-1.22731e-05
9.14579e-05
-2.02275e-05
8.50862e-05
-2.79609e-05
7.76557e-05
-3.49367e-05
6.9808e-05
-4.0799e-05
6.20084e-05
-4.54895e-05
5.4563e-05
-4.90891e-05
4.76497e-05
-5.17501e-05
-5.3596e-05
4.13639e-05
6.15374e-06
0.000214437
4.20432e-05
0.000300584
0.000112384
0.000311702
0.000178927
0.000267348
0.000213579
0.000199604
0.000214432
0.000135833
0.000196179
8.6858e-05
0.000170686
5.22684e-05
0.000144789
2.96081e-05
0.000123016
1.6527e-05
0.000108236
1.01079e-05
0.000100121
6.5946e-06
9.58092e-05
2.94695e-06
9.25009e-05
-2.09952e-06
8.86612e-05
-8.43349e-06
8.38054e-05
-1.53718e-05
7.80787e-05
-2.22341e-05
7.16961e-05
-2.85538e-05
6.50134e-05
-3.41161e-05
5.83305e-05
-3.88065e-05
5.18781e-05
-4.26367e-05
4.58106e-05
-4.56825e-05
-4.80156e-05
4.02302e-05
1.40922e-05
0.000200344
4.82587e-05
0.000266418
0.000100695
0.000259266
0.000146048
0.000221995
0.000170181
0.000175471
0.000174082
0.000131932
0.000165121
9.58191e-05
0.000149845
6.75442e-05
0.000132937
4.6516e-05
0.00011763
3.1835e-05
0.000105731
2.20059e-05
9.73489e-05
1.49771e-05
9.14061e-05
8.88981e-06
8.66017e-05
2.70485e-06
8.19776e-05
-3.80956e-06
7.70564e-05
-1.04506e-05
7.17495e-05
-1.6927e-05
6.61201e-05
-2.29242e-05
6.0313e-05
-2.83089e-05
5.45245e-05
-3.30179e-05
4.89126e-05
-3.70246e-05
4.36015e-05
-4.03712e-05
-4.30953e-05
3.86813e-05
1.59755e-05
0.000184369
4.71454e-05
0.000235248
8.54438e-05
0.000220968
0.000117347
0.000190091
0.000135939
0.00015688
0.000141674
0.000126196
0.000138256
9.92375e-05
0.000129588
7.62127e-05
0.000118779
5.73252e-05
0.000108056
4.25572e-05
9.87591e-05
3.13031e-05
9.12881e-05
2.24481e-05
8.53189e-05
1.4859e-05
8.02316e-05
7.79188e-06
7.54737e-05
9.48234e-07
7.071e-05
-5.68692e-06
6.57936e-05
-1.20105e-05
6.07742e-05
-1.79047e-05
5.56829e-05
-2.32175e-05
5.06406e-05
-2.79755e-05
4.57495e-05
-3.21333e-05
4.11027e-05
-3.57243e-05
-3.87622e-05
3.67697e-05
1.49587e-05
0.00016941
4.14703e-05
0.000208737
7.02978e-05
0.00019214
9.38085e-05
0.000166581
0.000108499
0.000142189
0.000114686
0.000120009
0.000114476
9.94484e-05
0.000110168
8.05205e-05
0.000103689
6.38042e-05
9.65168e-05
4.97293e-05
8.96504e-05
3.81695e-05
8.35526e-05
2.85459e-05
7.82294e-05
2.0182e-05
7.34471e-05
1.25739e-05
6.89373e-05
5.45795e-06
6.45028e-05
-1.25246e-06
6.00468e-05
-7.55445e-06
5.55592e-05
-1.34171e-05
5.10867e-05
-1.87449e-05
4.66758e-05
-2.35645e-05
4.23952e-05
-2.78526e-05
3.83047e-05
-3.16337e-05
-3.49087e-05
3.44512e-05
1.32195e-05
0.000156191
3.50406e-05
0.000186916
5.73005e-05
0.00016988
7.51663e-05
0.000148715
8.68535e-05
0.000130502
9.28206e-05
0.000114042
9.43758e-05
9.78935e-05
9.28253e-05
8.2071e-05
8.92869e-05
6.73424e-05
8.4709e-05
5.43073e-05
7.98234e-05
4.30551e-05
7.50688e-05
3.33003e-05
7.05998e-05
2.46508e-05
6.63869e-05
1.67867e-05
6.23319e-05
9.51289e-06
5.83435e-05
2.73584e-06
5.43698e-05
-3.58085e-06
5.03886e-05
-9.43602e-06
4.64511e-05
-1.48074e-05
4.2568e-05
-1.96813e-05
3.87816e-05
-2.4066e-05
3.51211e-05
-2.7973e-05
-3.14112e-05
3.16235e-05
1.14494e-05
0.000144742
2.92322e-05
0.000169133
4.66621e-05
0.000152451
6.04562e-05
0.000134921
6.98136e-05
0.000121145
7.52983e-05
0.000108557
7.77334e-05
9.54584e-05
7.78087e-05
8.19958e-05
7.61422e-05
6.90089e-05
7.3345e-05
5.71046e-05
6.99574e-05
4.64424e-05
6.63598e-05
3.68977e-05
6.27497e-05
2.82608e-05
5.9189e-05
2.03474e-05
5.56714e-05
1.30304e-05
5.21721e-05
6.23493e-06
4.86696e-05
-7.84306e-08
4.51642e-05
-5.93055e-06
4.16719e-05
-1.13149e-05
3.82133e-05
-1.62226e-05
3.48029e-05
-2.06555e-05
3.14657e-05
-2.46358e-05
-2.81758e-05
2.82303e-05
9.79508e-06
0.000134947
2.42219e-05
0.000154706
3.7914e-05
0.000138759
4.86264e-05
0.000124209
5.61524e-05
0.000113619
6.10596e-05
0.00010365
6.38319e-05
9.2686e-05
6.47869e-05
8.10409e-05
6.42576e-05
6.95382e-05
6.26503e-05
5.87118e-05
6.03654e-05
4.87271e-05
5.77099e-05
3.9553e-05
5.48715e-05
3.10992e-05
5.19428e-05
2.3276e-05
4.89604e-05
1.60126e-05
4.59354e-05
9.2598e-06
4.28699e-05
2.98711e-06
3.97668e-05
-2.82743e-06
3.66471e-05
-8.19506e-06
3.35203e-05
-1.30956e-05
3.04129e-05
-1.75481e-05
2.73413e-05
-2.15641e-05