/*--------------------------------*- C++ -*----------------------------------*\
  =========                 |
  \\      /  F ield         | OpenFOAM: The Open Source CFD Toolbox
   \\    /   O peration     | Website:  https://openfoam.org
    \\  /    A nd           | Version:  13
     \\/     M anipulation  |
\*---------------------------------------------------------------------------*/
FoamFile
{
    format      ascii;
    class       volScalarField;
    location    "0.95";
    object      rho;
}
// * * * * * * * * * * * * * * * * * * * * * * * * * * * * * * * * * * * * * //

dimensions      [1 -3 0 0 0 0 0];

internalField   nonuniform List<scalar> 
2268
(
1000
1000
1000
1000
1000
1000
1000
1000
1000
1000
1000
1000
1000
999.733
984.438
966.273
991.138
991.138
986.657
979.408
989.669
998.75
999.971
1000
1000
1000
1000
1000
1000
1000
1000
1000
1000
1000
1000
999.997
995.719
956.965
954.844
958.286
971.877
966.78
966.738
967.047
998.664
999.971
1000
1000
1000
1000
1000
1000
1000
1000
1000
1000
1000
1000
999.996
999.586
979.436
954.871
954.844
955.184
977.921
986.2
995.213
999.955
999.97
1000
1000
1000
1000
1000
1000
1000
1000
1000
1000
1000
1000
1000
999.997
999.507
991.909
986.517
996.166
1000
1000
1000
1000
999.993
1000
1000
1000
999.999
999.996
999.999
1000
999.999
1000
1000
1000
1000
1000
999.999
999.996
999.997
1000
1000
1000
1000
1000
1000
1000
1000
1000
1000
1000
999.986
999.919
999.862
999.969
1000
1000
1000
1000
1000
1000
1000
999.999
999.997
1000
999.999
999.996
999.997
999.999
999.991
1000
1000
1000
1000
1000
999.173
998.658
999.911
1000
1000
1000
1000
1000
999.998
999.994
999.997
999.995
999.982
999.999
999.998
999.943
999.968
999.969
1000
1000
1000
1000
1000
998.816
998.489
999.658
1000
1000
1000
1000
1000
999.963
999.874
999.834
985.048
923.182
887.544
970.081
999.943
999.836
999.948
985.416
987.211
990.541
992.818
992.856
992.847
989.157
985.558
830.904
708.971
708.95
710.266
726.244
748.303
716.798
717.067
764.171
852.631
852.805
990.258
990.267
965.9
913.8
992.239
992.856
992.847
951.71
745.711
708.962
795.48
814.776
814.994
814.776
794.023
717.019
847.654
852.782
736.61
990.264
961.719
754.458
746.487
992.177
990.64
984.696
862.887
746.247
808.042
814.363
814.994
814.776
814.397
813.867
796.221
847.384
829.811
639.924
989.885
880.396
743.57
743.554
983.654
976.331
953.537
838.346
807.144
811.094
813.489
714.941
647.631
810.729
813.718
813.343
788.074
639.736
639.83
988.218
902.254
743.546
788.013
965.05
967.481
829.234
708.071
782.765
805.472
408.799
81.1205
52.7532
375.805
810.423
812.707
639.736
639.736
653.171
986.398
799.332
745.046
985.026
966.239
914.081
639.704
571.083
630.856
260.365
7.09408
3.49084
4.88104
21.7308
438.619
806.972
695.792
647.744
732.609
988.043
799.628
853.315
994.048
911.857
806.603
477.315
449.317
209.275
4.74719
2.11361
1.87121
2.30247
4.43376
42.4919
537.747
718.598
726.37
732.609
989.697
800.395
936.03
994.781
817.742
582.691
200.948
264.207
59.4967
2.09535
1.63501
1.60096
1.69575
2.03196
2.74517
80.2493
490.572
580.704
570.475
999.69
999.991
1000
999.558
999.542
999.984
999.998
999.998
999.999
990.517
945.016
979.543
999.996
997.553
911.297
714.786
496.64
354.08
318.003
545.284
910.807
999.797
999.453
704.618
899.724
994.396
978.528
980.757
999.979
911.287
645.378
509.426
466.293
909.62
979.003
975.677
605.942
193.068
112.697
112.61
112.697
114.594
176.925
780.298
985.836
953.093
415.642
415.96
789.68
979.997
980.558
837.644
323.721
59.4859
117.165
490.715
628.182
390.757
204.062
154.316
130.801
112.873
113.784
116.541
377.566
609.937
600.825
455.006
615.669
472.7
780.971
831.28
804.165
340.828
102.654
34.7101
20.77
25.2762
95.9995
51.551
36.5363
33.9424
93.9941
347.732
384.409
385.111
384.004
382.35
254.918
75.8509
87.6755
505.661
709.556
693.49
192.587
73.6199
85.7585
85.7539
23.2311
18.9984
13.9252
9.3158
7.1569
7.06996
3.15053
39.1979
125.301
176.481
128.967
77.8912
74.3504
72.9095
72.0827
81.5295
619.6
698.076
319.239
4.06734
67.8463
87.5004
87.2558
87.0768
71.3248
37.3887
7.80205
3.52567
3.19314
2.6566
2.09851
2.5963
5.21492
32.3377
114.116
116.063
82.1389
60.0036
99.1312
625.74
636.646
157.865
1.71836
4.04063
4.21292
15.8502
65.8327
77.2285
77.23
66.9882
18.0224
1.18021
1.12075
1.24683
1.40549
20.2934
110.733
116.204
116.934
116.008
45.4897
13.9854
230.026
606.15
145.236
1.19729
1.04955
1.03818
1.14101
1.44642
10.4585
47.4505
63.9036
14.2448
1.06242
1.02855
1.09268
1.03453
1.04891
10.4535
62.9319
73.6508
14.8899
1.25864
1.94358
7.6314
586.879
129.129
1.0487
1.01166
1.0099
1.02759
1.18502
3.28697
6.13602
8.61938
5.97059
1.02522
1.00601
1.00232
1.02544
1.04311
1.04311
1.06125
1.07943
1.10043
1.12958
1.15317
1.78929
566.207
73.5294
1.01138
1.00333
1.00236
1.00486
1.07987
1.40198
1.59736
1.31349
1.03356
1.0121
1.00263
1.00023
1.00047
1.03877
1.14361
1.20457
1.14497
1.16204
1.13409
1.08557
1.2018
561.437
9.02466
1.00325
1.00103
1.00055
1.00082
1.00315
1.08344
1.26073
1.24567
1.01285
1.00082
1.00028
1.00004
1.00004
1.00007
1.05033
1.21225
1.25728
1.25728
1.23594
1.06052
1.0141
558.941
1.86639
1.00102
1.00033
1.00014
1.00016
1.00088
1.00696
1.01435
1.0223
1.01885
1.00434
1.00003
1.00003
1.00003
1.00003
1.00004
1.00008
1.17335
1.25728
1.24016
1.06127
1.00497
535.214
1.00261
1.00032
1.00011
1.00005
1.00005
1.00016
1.00044
1.00045
1.00018
1.00069
1.0009
1.00009
1.00003
1.00003
1.00003
1.00002
1
1
1.03696
1.054
1.00006
1.00418
312.869
1.00097
1.00012
1.00004
1.00003
1.00003
1.00004
1.00005
1.00006
1.00009
1.00006
1.00005
1.00005
1.00004
1.00006
1.00006
1.00002
1
1
1
1
1
1.00167
183.933
1.00037
1.00005
1.00003
1.00002
1.00002
1.00003
1.00004
1.00005
1.00008
1.00009
1.00006
1.00005
1.00005
1.00004
1.00004
1.00003
1.00001
1
1
1
1.00001
1.00001
290.464
1.00015
1.00003
1.00002
1.00002
1.00002
1.00002
1.00003
1.00004
1.00008
1.00009
1.00008
1.00009
1.00006
1.00001
1
1
1
1
1
1
1.00005
1.00006
327.469
1.00009
1.00004
1.00003
1.00004
1.00006
1.00064
1.01667
1.07843
1.01073
1.00379
1.00061
1.00069
1.00042
1.00009
1.00001
1
1
1
1
1
1.00001
1.00005
327.891
1.02691
1.00009
1.00005
1.00083
1.00123
1.02402
1.3331
1.33943
1.33594
1.10063
1.00319
1.00335
1.00228
1.00047
1.00005
1.00001
1
1
1
1
1
1
327.891
1.11992
1.00013
1.00027
1.00104
1.03366
1.30742
1.34118
1.33943
1.33943
1.33594
1.13706
1.06585
1.00867
1.00203
1.00032
1.00002
1
1
1
1
1
1
125.622
1.00033
1.00015
1.00018
1.00071
1.10494
1.34015
1.34293
1.30824
1.02277
1.03607
1.39414
1.45158
1.22947
1.00977
1.00357
1.00062
1.00006
1
1
1
1
1
4.01489
1.04415
1.00019
1.0002
1.00299
1.14393
1.34271
1.34233
1.1548
1.02172
1.0218
1.03643
1.54339
1.55802
1.25707
1.02865
1.00286
1.00026
1.00002
1
1
1
1
71.2964
1.53107
1.00042
1.00051
1.00385
1.07003
1.26402
1.26612
1.05628
1.02271
1.02169
1.02315
1.32196
1.58306
1.55141
1.09232
1.00306
1.00032
1.00003
1
1
1
1
106.785
3.14009
1.00135
1.00081
1.00161
1.0039
1.01962
1.03277
1.03264
1.02736
1.02316
1.02814
1.43416
1.6085
1.58306
1.1474
1.00186
1.00017
1.00001
1
1
1
1
107.468
4.43511
1.00511
1.0028
1.00249
1.00278
1.00667
1.09439
1.13115
1.04524
1.02914
1.26113
1.61002
1.61713
1.58863
1.06908
1.00186
1.00019
1.00001
1
1
1
1
107.117
26.6295
1.08227
1.00936
1.00303
1.00516
1.10172
1.20789
1.10495
1.05406
1.34263
1.61002
1.61757
1.61394
1.34593
1.01368
1.00114
1.00012
1.00001
1
1
1
1
53.8672
48.0043
13.9991
1.77391
1.07182
1.38236
1.27624
1.12392
1.09112
1.06463
1.58157
1.61737
1.61685
1.56376
1.0686
1.00149
1.00023
1.00003
1
1
1
1
1
2.35457
31.0864
31.8976
18.5218
11.5228
2.78979
1.30213
1.09501
1.03552
1.01438
1.42334
1.59954
1.49146
1.07147
1.00092
1.00013
1.00002
1
1
1
1
1
1
1.34994
6.71057
15.3007
17.544
11.0176
2.67618
1.15684
1.03553
1.00661
1.00697
1.10568
1.16012
1.0687
1.00423
1.0001
1.00002
1
1
1
1
1
1
1
1.07504
1.33917
2.31804
2.80909
2.59196
1.58868
1.03986
1.00664
1.00099
1.00015
1.00005
1.00145
1.00224
1.0011
1.00003
1
1
1
1
1
1
1
1
1.01513
1.07399
1.30497
1.2432
1.12699
1.04297
1.00855
1.001
1.00016
1.00003
1.00004
1.00013
1.00016
1.00008
1.00001
1
1
1
1
1
1
1
1
1.00278
1.01559
1.07002
1.05371
1.02439
1.0069
1.00138
1.0002
1.00003
1.00001
1
1.00001
1.00001
1.00001
1
1
1
1
1
1
1
1
1
1.00048
1.00302
1.01414
1.01012
1.00415
1.00114
1.00023
1.00004
1
1
1
1
1
1
1
1
1
1
1
1
1
1
1
1.00008
1.00053
1.00252
1.00168
1.00064
1.00017
1.00004
1.00001
1
1
1
1
1
1
1
1
1
1
1
1
1
1
1
1.00001
1.00008
1.00041
1.00025
1.00009
1.00002
1
1
1
1
1
1
1
1
1
1
1
1
1
1
1
1
1
1
1.00001
1.00006
1.00003
1.00001
1
1
1
1
1
1
1
1
1
1
1
1
1
1
1
1
1
1
1
1
1.00001
1
1
1
1
1
1
1
1
1
1
1
1
1
1
1
1
1
1
1
1
1
1
1
1
1
1
1
1
1
1
1
1
1
1
1
1
1
1
1
1
1
1
1
1
1
1
1
1
1
1
1
1
1
1
1
1
1
1
1
1
1
1
1
1
1
1
1
1
1
1
1
1
1
1
1
1
1
1
1
1
1
1
1
1
1
1
1
1
1
1
1
1
1
1
1
1
1
1
1
1
1
1
1
1
1
1
1
1
1
1
1
1
1
1
1
1
1
1
1
1
1
1
1
1
1
1
1
1
1
1
1
1
1
1
1
1
1
1
1
1
1
1
1
1
1
1
1
1
1
1
1
1
1
1
1
1
1
1
995.423
984.743
971.198
979.482
972.025
955.922
907.916
753.744
972.24
967.896
786.542
643.341
971.388
969.339
937.952
848.141
969.321
964.116
951.744
935.138
964.075
955.608
942.894
917.935
892.923
944.148
926.25
904.29
446.623
870.345
906.947
886.992
9.1055
311.9
771.926
858.225
1.71808
3.72589
54.5
465.034
1.09744
1.17553
1.74663
3.66935
1.01068
1.02161
1.03147
1.38737
1.01696
1.00504
1.00553
1.01237
1.0146
1.00499
1.00037
1.00052
1.00001
1.00527
1.00029
1.0003
1.00001
1
1.00026
1.00081
1.00001
1
1
1
1
1
1
1
1
1
1
1
1
1
1
1
1
1
1
1
1
1
1
1
1
1
1
1
1
1
1
1
1
1
1
1
1
1
1
1
1
1
1
1
1
1
1
1
1
1
1
1
1
1
1
1
1
1
1
1
1
1
1
1
1
1
1
1
1
1
1
1
1
1
1
1
1
1
1
1
1
1
1
1
1
1
1
1
1
1
1
1
1
1
1
1
1
1
1
1
1
1
1
1
989.697
961.647
992.232
994.781
896.997
321.01
107.684
141.458
17.7791
1.6365
1.58516
1.58887
1.59944
1.6412
1.71842
2.10042
2.93467
27.4309
40.7564
918.297
971.851
920
951.927
885.441
82.9253
108.704
82.2519
1.69109
1.58551
1.57904
1.58415
1.58915
1.60511
1.6546
1.72258
1.94401
2.94565
7.06722
643.341
744.502
830.089
950.568
604.666
68.8323
106.411
48.7327
1.59877
1.57468
1.5741
1.57906
1.59373
2.17717
1.72008
1.75333
3.23479
27.3979
23.7853
678.207
597.956
753.331
565.916
103.465
71.1602
79.1845
4.67302
1.57485
1.56869
1.56967
1.70939
3.89541
3.29203
1.75439
1.83721
2.00624
97.675
97.8609
837.289
296.012
68.2307
26.995
9.93873
32.4021
27.027
1.63037
1.56869
1.56747
1.56861
2.53307
6.02034
2.85508
1.83693
2.01327
7.40647
109.779
105.175
650.604
71.4419
3.29636
2.98916
2.72303
2.51912
1.80471
1.58535
1.56747
1.56742
1.56747
2.82686
5.95131
3.20728
2.49304
2.82344
60.059
121.698
49.1204
582.687
13.1328
3.07201
2.72686
2.21823
1.85587
1.62293
1.57683
1.56747
1.56747
1.56987
1.80465
3.31295
5.54642
16.6763
47.6315
162.196
124.487
31.5975
698.09
57.7807
3.08371
2.90593
2.79102
3.52357
5.90635
4.57349
2.36421
3.48976
2.07978
3.60801
31.9978
129.011
230.483
276.8
244.647
38.9498
7.62389
820.524
403.142
3.21378
3.15548
3.03625
4.56526
6.00227
6.0171
5.71333
3.57274
23.0697
131.577
282.758
287.661
287.661
287.661
60.1248
1.00811
1.10189
691.059
689.467
533.822
8.7484
3.20703
3.32567
5.94671
5.07658
4.27931
26.3334
218.431
284.335
285.494
287.157
286.676
98.7896
1.00021
1.00033
1.00527
217.754
689.884
689.884
577.556
8.63821
3.51943
3.84637
3.98734
4.06992
187.734
258.88
263.916
242.452
184.258
36.4146
1.00012
1.00017
1.00031
1.00042
1.62824
177.52
682.928
703.841
573.476
8.36336
3.98727
4.06985
87.0057
196.208
147.82
5.48786
1.00007
1.00007
1.00006
1.00008
1.00015
1.00039
1.00042
1.02242
1.3205
109.833
663.848
706.078
486.903
4.54677
4.10552
314.963
170.872
1.26787
1.00385
1.00007
1.00006
1.00027
1.00012
1.00021
1.0007
1.0008
1.00105
1.00569
1.11709
100.569
623.703
628.476
375.013
426.841
358.22
24.5699
1.09704
1.00057
1.00004
1.00007
1.00112
1.01494
1.02485
1.00234
1.00969
1.00003
1.00004
1.0008
1.01849
66.4693
535.428
530.38
480.92
55.4127
1.04811
1.0013
1.0007
1
1.00006
1.00026
1.04166
1.13831
1.05
1.01882
1.00001
1
1.00003
1.00003
1.00001
14.116
207.818
41.0728
1.01324
1.0002
1.00006
1
1
1.00006
1.0002
1.03884
1.13822
1.1091
1.19206
1
1
1
1
1
1
1
1
1
1
1
1
1
1
1.00007
1.0124
1.13855
1.06331
1.32596
1
1
1
1
1.00002
1.00003
1
1
1
1
1
1
1
1
1
1.00188
1.12891
1.06295
1.32681
1
1
1
1
1
1
1
1
1
1
1
1
1
1
1
1
1.0303
1.14775
1.3239
1
1
1
1
1
1
1
1
1
1
1
1
1
1
1
1
1.0109
1.49919
1.09859
1
1
1
1
1
1
1
1
1
1
1
1.00024
1.00036
1.00011
1
1
1.02201
1.50012
1.0198
1
1
1
1
1
1
1
1
1
1.00001
1.00036
1.00065
1.00065
1.00053
1.00002
1
1.01957
1.49814
1.01931
1
1
1
1
1
1
1
1
1
1.00039
1.00065
1.00065
1.00066
1.00065
1.00007
1
1.01023
1.17639
1.01214
1
1
1
1
1
1
1
1
1.00018
1.00063
1.00064
1.00056
1.00048
1.00029
1.00001
1
1.0141
1.00149
1.0014
1
1
1
1
1
1
1
1
1.00061
1.00062
1.00036
1.00013
1.00013
1.00014
1.00018
1
1.02052
1.00369
1.00057
1
1
1
1
1
1
1
1
1.0006
1.00025
1.00014
1.00013
1.00013
1.00043
1.00042
1
1.04166
1.02053
1.00037
1
1
1
1
1
1
1
1
1.00051
1.00058
1.00014
1.00014
1.00019
1.0005
1.00028
1.00025
1.04289
1.02181
1.00005
1
1
1
1
1
1
1
1
1.00008
1.00207
1.00148
1.0002
1.00108
1.00513
1.00868
1.00884
1.02764
1.00175
1
1
1
1
1
1
1
1
1
1
1.00205
1.01671
1.01202
1.0056
1.03207
1.03681
1.03679
1.00001
1
1
1
1
1
1
1
1
1
1
1
1.00042
1.01774
1.02217
1.02191
1.0355
1.03602
1.01077
1
1
1
1
1
1
1
1
1
1
1
1
1
1
1.01975
1.02176
1.01722
1.0028
1.00002
1.00002
1
1
1
1
1
1
1
1
1
1
1
1
1
1
1.01162
1.00236
1
1.00013
1.00003
1
1
1
1
1
1
1
1
1
1
1
1
1
1
1
1
1
1
1
1
1
1
1
1
1
1
1
1
1
1
1
1
1
1
1
1
1
1
1
1
1
1
1
1
1
1
1
1
1
1
1
1
1
1
1
1
1
1
1
1
1
1
1
1
1
1
1
1
1
1
1
1
1
1
1
1
1
1
1
1
1
1
1
1
1
1
1
1
1
1
1
1
1
1
1
1
1
1
1
1
1
1
1
1
1
1
1
1
1
1
1
1
1
1
1
1
1
1
1
1
1
1
1
1
1
1
1
1
1
1
1
1
1
1
1
1
1
1
1
1
1
1
1
1
1
1
1
1
1
1
1
1
1
1
1
1
1
1
1
1
1
1
1
1
1
1
1
1
1
1
1
1
1
1
1
1
1
1
1
1
1
1
1
1
1
1
1
1
1
1
1
1
)
;

boundaryField
{
    leftWall
    {
        type            calculated;
        value           nonuniform List<scalar> 
50
(
1000
1000
1000
1000
1000
1000
1000
1000
999.69
704.618
415.642
472.7
709.556
698.076
636.646
606.15
586.879
566.207
561.437
558.941
535.214
312.869
183.933
290.464
327.469
327.891
327.891
125.622
4.01489
71.2964
106.785
107.468
107.117
53.8672
2.35457
1.34994
1.07504
1.01513
1.00278
1.00048
1.00008
1.00001
1
1
1
1
1
1
1
1
)
;
    }
    rightWall
    {
        type            calculated;
        value           nonuniform List<scalar> 
50
(
852.805
736.61
639.924
639.83
653.171
732.609
732.609
570.475
40.7564
7.06722
23.7853
97.8609
105.175
49.1204
31.5975
7.62389
1.10189
1.00527
1.00042
1.00042
1.0008
1.00969
1.01882
1.19206
1.32596
1.32681
1.3239
1.09859
1.0198
1.01931
1.01214
1.0014
1.00057
1.00037
1.00005
1
1
1
1
1
1
1
1
1
1
1
1
1
1
1
)
;
    }
    lowerWall
    {
        type            calculated;
        value           nonuniform List<scalar> 
62
(
1000
1000
1000
1000
1000
1000
1000
1000
1000
1000
1000
1000
1000
999.733
984.438
966.273
991.138
991.138
986.657
979.408
989.669
998.75
999.971
999.971
999.971
999.97
999.993
1000
999.991
999.969
999.948
995.423
984.743
971.198
979.482
985.416
990.258
990.264
989.885
988.218
986.398
988.043
989.697
985.416
987.211
990.541
992.818
992.856
992.847
989.157
985.558
830.904
708.971
708.95
710.266
726.244
748.303
716.798
717.067
764.171
852.631
852.805
)
;
    }
    atmosphere
    {
        type            calculated;
        value           nonuniform List<scalar> 
46
(
1
1
1
1
1
1
1
1
1
1
1
1
1
1
1
1
1
1
1
1
1
1
1
1
1
1
1
1
1
1
1
1
1
1
1
1
1
1
1
1
1
1
1
1
1
1
)
;
    }
    defaultFaces
    {
        type            empty;
    }
}


// ************************************************************************* //
