/*--------------------------------*- C++ -*----------------------------------*\
  =========                 |
  \\      /  F ield         | OpenFOAM: The Open Source CFD Toolbox
   \\    /   O peration     | Website:  https://openfoam.org
    \\  /    A nd           | Version:  13
     \\/     M anipulation  |
\*---------------------------------------------------------------------------*/
FoamFile
{
    format      ascii;
    class       surfaceScalarField;
    location    "0.55";
    object      alphaPhi.water;
}
// * * * * * * * * * * * * * * * * * * * * * * * * * * * * * * * * * * * * * //

dimensions      [0 3 -1 0 0 0 0];

internalField   nonuniform List<scalar> 
4432
(
-3.46125e-06
3.46125e-06
-5.52947e-06
2.06822e-06
-4.79086e-06
-7.38612e-07
-2.17883e-06
-2.61204e-06
1.88611e-06
-4.06494e-06
6.73815e-06
-4.85204e-06
1.139e-05
-4.65182e-06
1.50535e-05
-3.66354e-06
1.74574e-05
-2.40392e-06
1.87191e-05
-1.26166e-06
1.90586e-05
-3.39522e-07
1.86316e-05
4.27057e-07
1.75212e-05
1.11039e-06
1.57679e-05
1.75326e-06
1.32319e-05
2.536e-06
9.57309e-06
3.65884e-06
4.49337e-06
5.07972e-06
-1.561e-06
6.05437e-06
-5.64672e-06
4.59907e-06
-1.03446e-05
4.3977e-06
-1.79208e-05
6.35729e-06
-1.5709e-05
-2.21181e-06
-1.5709e-05
-3.85985e-06
7.32111e-06
-5.20805e-06
3.41642e-06
-4.18893e-06
-1.75773e-06
-1.66435e-06
-5.13662e-06
2.2156e-06
-7.94489e-06
6.99009e-06
-9.62653e-06
1.16151e-05
-9.27682e-06
1.52356e-05
-7.28406e-06
1.75825e-05
-4.75083e-06
1.88194e-05
-2.49857e-06
1.92612e-05
-7.81283e-07
1.92039e-05
4.84305e-07
1.88666e-05
1.44779e-06
1.83299e-05
2.28992e-06
1.76089e-05
3.25695e-06
1.64867e-05
4.78104e-06
1.42859e-05
7.2806e-06
9.76938e-06
1.05708e-05
2.3314e-06
1.207e-05
-6.29723e-06
1.3829e-05
-1.21515e-05
1.17047e-05
-9.86431e-06
-4.88807e-06
-2.55733e-05
-3.05768e-06
1.03788e-05
-3.96762e-06
4.32636e-06
-3.09516e-06
-2.6302e-06
-1.0252e-06
-7.20658e-06
2.38303e-06
-1.13531e-05
6.96109e-06
-1.42046e-05
1.15394e-05
-1.38551e-05
1.50878e-05
-1.08325e-05
1.73067e-05
-6.96976e-06
1.84201e-05
-3.61188e-06
1.87601e-05
-1.12131e-06
1.85874e-05
6.5696e-07
1.80727e-05
1.96253e-06
1.73711e-05
2.99154e-06
1.66485e-05
3.97959e-06
1.61441e-05
5.28543e-06
1.60161e-05
7.40853e-06
1.53622e-05
1.12248e-05
1.19531e-05
1.54791e-05
5.71495e-06
2.02037e-05
-1.65499e-06
1.85678e-05
-2.11652e-06
-4.30866e-06
-2.7689e-05
-1.88339e-06
1.22622e-05
-2.18407e-06
4.62704e-06
-1.46955e-06
-3.34472e-06
8.04233e-08
-8.75656e-06
2.94751e-06
-1.42202e-05
7.13702e-06
-1.83941e-05
1.14456e-05
-1.81637e-05
1.4767e-05
-1.41539e-05
1.67991e-05
-9.00182e-06
1.77904e-05
-4.60321e-06
1.80918e-05
-1.42272e-06
1.79513e-05
7.97481e-07
1.75247e-05
2.38915e-06
1.69158e-05
3.60047e-06
1.62253e-05
4.67007e-06
1.56181e-05
5.8926e-06
1.54847e-05
7.54191e-06
1.6243e-05
1.04665e-05
1.68994e-05
1.48228e-05
1.60833e-05
2.10198e-05
1.25521e-05
2.23031e-05
7.43037e-06
1.31555e-06
-2.0204e-05
-3.29387e-07
1.25916e-05
4.52098e-07
3.84555e-06
1.41019e-06
-4.30281e-06
2.9343e-06
-1.02807e-05
5.55518e-06
-1.68411e-05
8.93409e-06
-2.1773e-05
1.22334e-05
-2.1463e-05
1.47005e-05
-1.6621e-05
1.61971e-05
-1.04984e-05
1.69666e-05
-5.37277e-06
1.72586e-05
-1.71465e-06
1.72148e-05
8.41301e-07
1.69478e-05
2.65607e-06
1.65439e-05
4.00443e-06
1.60871e-05
5.12686e-06
1.56698e-05
6.30988e-06
1.54793e-05
7.73247e-06
1.6083e-05
9.86275e-06
1.7926e-05
1.29798e-05
2.05932e-05
1.83525e-05
2.09374e-05
2.23329e-05
1.39595e-05
8.46535e-06
-6.23248e-06
1.88202e-06
1.07095e-05
4.36079e-06
1.36677e-06
6.58503e-06
-6.52706e-06
9.04789e-06
-1.27435e-05
1.15485e-05
-1.93417e-05
1.34332e-05
-2.36577e-05
1.47331e-05
-2.27629e-05
1.5538e-05
-1.74258e-05
1.59558e-05
-1.09162e-05
1.61937e-05
-5.61069e-06
1.63711e-05
-1.892e-06
1.64389e-05
7.73494e-07
1.63711e-05
2.72387e-06
1.61945e-05
4.18101e-06
1.59802e-05
5.34123e-06
1.58102e-05
6.47988e-06
1.5848e-05
7.69464e-06
1.63498e-05
9.36093e-06
1.77792e-05
1.15504e-05
2.09322e-05
1.51996e-05
2.31038e-05
2.01613e-05
1.67342e-05
1.4836e-05
1.04984e-05
4.36917e-06
6.34037e-06
9.47178e-06
-3.73584e-06
1.43191e-05
-1.13744e-05
1.82756e-05
-1.67e-05
2.01237e-05
-2.11899e-05
1.96762e-05
-2.32103e-05
1.84165e-05
-2.15027e-05
1.7334e-05
-1.63426e-05
1.65464e-05
-1.01283e-05
1.60585e-05
-5.12274e-06
1.58051e-05
-1.63849e-06
1.5832e-05
7.46587e-07
1.5864e-05
2.69181e-06
1.58893e-05
4.15578e-06
1.59167e-05
5.31383e-06
1.59656e-05
6.43096e-06
1.62371e-05
7.42315e-06
1.69072e-05
8.69076e-06
1.79675e-05
1.04901e-05
2.02903e-05
1.28768e-05
2.27049e-05
1.77467e-05
1.88912e-05
1.86498e-05
2.93866e-05
6.75146e-06
-4.11077e-07
1.54836e-05
-1.24673e-05
2.33905e-05
-1.92803e-05
2.75954e-05
-2.09042e-05
2.72457e-05
-2.08349e-05
2.40854e-05
-2.00297e-05
2.09239e-05
-1.83088e-05
1.88452e-05
-1.42383e-05
1.76015e-05
-8.87274e-06
1.68789e-05
-4.39616e-06
1.64712e-05
-1.22984e-06
1.60626e-05
1.15506e-06
1.58147e-05
2.93972e-06
1.57166e-05
4.25395e-06
1.57852e-05
5.24518e-06
1.59676e-05
6.24852e-06
1.64915e-05
6.8993e-06
1.74599e-05
7.7223e-06
1.86516e-05
9.29841e-06
2.0376e-05
1.11524e-05
2.22807e-05
1.5842e-05
1.943e-05
2.15006e-05
4.88138e-05
6.70848e-06
-7.08479e-06
7.599e-06
-2.16111e-06
1.14802e-05
-2.97666e-06
1.75083e-05
-2.09464e-06
1.22036e-05
3.5411e-07
1.60044e-06
3.83924e-06
-3.63166e-05
3.11878e-05
-5.79964e-05
1.85224e-05
-6.25371e-05
3.33077e-06
-9.37351e-05
-1.49379e-06
-0.000108044
-3.16374e-06
-0.000109784
-4.06093e-06
-0.000109413
-4.88262e-06
-0.000111148
-5.84315e-06
-0.000110501
-9.81245e-06
-0.000100605
-1.63012e-05
-7.73316e-05
-2.65317e-05
-1.98721e-05
-6.06013e-05
-2.30304e-05
1.07614e-06
-1.23862e-05
4.65762e-06
-4.07205e-05
2.00539e-05
-8.35364e-05
6.25086e-06
-3.81076e-06
1.59371e-06
1.54647e-06
-2.39821e-05
2.42042e-05
-2.22309e-05
1.68925e-05
-3.68855e-06
2.83738e-06
-5.01493e-07
1.08409e-07
-1.98889e-06
-7.16863e-09
-6.41804e-06
-3.45915e-08
-2.3379e-05
-1.21887e-07
-3.86942e-05
-3.6351e-07
-5.05306e-05
-1.06907e-06
-6.37774e-05
-3.15775e-06
-8.03203e-05
-8.82544e-06
-7.9823e-05
-3.38259e-05
-2.64209e-05
-0.000113939
-4.92592e-05
-1.23178e-05
-1.14004e-05
-1.98291e-06
-8.55164e-05
1.93133e-05
-0.000169045
4.89066e-06
-2.12062e-06
-3.01048e-07
3.51757e-06
-1.85909e-05
3.9607e-05
-2.69406e-06
1.28279e-06
-1.07918e-07
2.43705e-07
-4.10833e-09
3.43063e-09
-1.17546e-08
1.28924e-10
-4.50035e-08
3.10353e-13
-1.65339e-07
-2.57047e-09
-5.12093e-07
-2.07195e-08
-1.49576e-06
-9.53692e-08
-4.27219e-06
-3.97141e-07
-1.14476e-05
-1.74822e-06
-3.87192e-05
-1.1657e-05
-3.46395e-05
-0.000121601
-8.97197e-05
-1.14802e-05
-3.23768e-06
2.84116e-06
-9.98378e-05
6.92941e-06
-0.000173134
3.7393e-06
-9.27033e-06
2.07415e-07
3.53056e-06
-2.59357e-06
3.93757e-05
-2.22521e-07
3.71392e-07
-4.32368e-09
2.48679e-08
-1.45173e-09
4.37891e-10
-1.79022e-09
3.16624e-10
-2.2289e-09
1.55456e-10
-6.26374e-09
1.38731e-11
-2.5674e-08
-3.40824e-09
-1.04958e-07
-2.15639e-08
-4.05431e-07
-1.09334e-07
-1.57859e-06
-5.95397e-07
-8.5247e-06
-4.7196e-06
-3.32078e-05
-9.16453e-05
-0.00012974
1.95097e-07
-3.43272e-06
1.37913e-05
-0.000113434
7.51886e-06
-0.000166861
9.38694e-06
-0.000136771
0
7.02729e-06
-3.39161e-07
3.65434e-05
-2.16402e-08
6.04307e-07
-7.22525e-10
3.85324e-09
-8.02356e-10
4.42639e-10
-1.04149e-09
4.68516e-10
-1.39722e-09
3.83642e-10
-1.90939e-09
1.39718e-10
-5.38362e-09
-1.04212e-09
-2.19982e-08
-7.30674e-09
-1.02997e-07
-3.41262e-08
-5.16273e-07
-1.96341e-07
-3.20748e-06
-2.04965e-06
-2.95156e-05
-6.03821e-05
-0.000166683
1.2408e-05
-1.58407e-05
2.50859e-05
-0.000126112
2.19928e-05
-0.000163769
3.55915e-05
-0.000174752
0
1.89685e-05
-1.3224e-07
3.24936e-05
-2.76342e-09
5.57145e-07
-3.92183e-10
1.40684e-09
-6.77169e-10
6.54146e-10
-9.44485e-10
6.61654e-10
-1.35365e-09
7.05558e-10
-1.89868e-09
5.17145e-10
-2.75319e-09
-6.51492e-10
-7.82865e-09
-3.6765e-09
-2.73169e-08
-1.86979e-08
-1.83259e-07
-5.21125e-08
-1.45462e-06
-7.83548e-07
-2.44686e-05
-3.60126e-05
-0.000198974
2.67287e-05
-4.25608e-05
3.59745e-05
-0.00013535
3.28487e-05
-0.000160644
3.39937e-05
-0.000175897
0
2.27961e-05
0
2.55689e-05
-6.30301e-10
4.51297e-07
-3.75443e-10
1.21459e-09
-7.35743e-10
9.40028e-10
-1.28998e-09
1.14236e-09
-2.44437e-09
1.7281e-09
-6.04616e-09
2.8263e-09
-1.1661e-08
0
-1.07146e-08
-1.093e-08
-1.48742e-08
-2.46206e-08
-6.42611e-08
-1.27941e-08
-7.67616e-07
-9.20638e-08
-1.82445e-05
-1.95394e-05
-0.000225054
4.1677e-05
-8.42412e-05
4.42798e-05
-0.000137945
3.75688e-05
-0.000153932
2.65292e-05
-0.000173848
0
1.50323e-05
4.73254e-08
1.96787e-05
-5.73139e-11
4.9637e-07
-4.43384e-10
1.54188e-09
-9.60058e-10
1.38322e-09
-2.0525e-09
2.02887e-09
-5.7735e-09
5.07396e-09
-2.22436e-08
1.2218e-08
-3.64912e-08
0
-1.65116e-08
-4.16137e-08
-5.65536e-09
-4.50731e-08
-7.59461e-09
-1.89256e-08
-1.01344e-07
-6.58292e-09
-1.27218e-05
-7.70108e-06
-0.000246946
2.08253e-05
-1.60919e-05
3.96915e-05
-2.05876e-05
4.37815e-05
-1.05333e-05
4.15463e-05
-5.29274e-06
3.84125e-05
-4.533e-06
3.55231e-05
-5.73436e-06
3.22994e-05
-7.09279e-06
3.08264e-05
-7.35327e-06
3.19951e-05
-6.53354e-06
3.41736e-05
-4.82906e-06
3.59741e-05
-2.56961e-06
3.72343e-05
-8.45838e-08
3.74605e-05
2.71351e-06
3.69572e-05
4.75719e-06
3.62156e-05
5.98683e-06
3.53682e-05
7.09565e-06
3.5824e-05
6.44351e-06
3.79213e-05
5.62506e-06
4.12014e-05
6.01835e-06
4.62002e-05
6.1536e-06
5.54299e-05
6.61222e-06
7.06988e-05
6.23172e-06
1.48419e-05
0.000104674
7.80615e-06
-1.01359e-14
3.36003e-06
-8.28258e-11
7.81722e-07
-6.91849e-09
-3.53543e-09
7.02855e-09
-6.94879e-07
-2.50952e-14
-1.18646e-06
-7.25845e-13
-1.9111e-06
-1.69483e-11
-2.03432e-06
-3.20771e-10
-6.82549e-07
-5.34873e-09
3.02176e-06
-8.0483e-08
1.03748e-05
-9.01769e-07
2.18117e-05
-2.85759e-06
3.24746e-05
-1.90193e-06
3.85788e-05
1.03116e-06
3.96762e-05
4.8894e-06
3.76219e-05
9.14993e-06
3.78156e-05
6.24986e-06
3.98857e-05
3.55492e-06
4.25576e-05
3.3465e-06
4.68907e-05
1.82044e-06
5.44477e-05
-9.44802e-07
6.37956e-05
-3.11616e-06
-4.84823e-06
8.34859e-05
3.27421e-17
-1.17646e-14
-8.1437e-11
-1.39083e-12
-6.99884e-09
0
-8.72208e-16
2.99694e-11
-2.5979e-14
-6.35836e-19
-7.51771e-13
0
-1.77024e-11
0
-3.38492e-10
3.14804e-15
-5.68723e-09
-6.20031e-16
-8.61693e-08
-1.00281e-12
-9.87908e-07
-3.02492e-11
-1.82621e-06
-6.48196e-10
-1.65427e-06
-1.03169e-08
5.85117e-07
-1.31742e-07
6.94372e-06
-6.92323e-07
1.8546e-05
-5.37885e-07
3.50533e-05
-2.06588e-06
4.44065e-05
-1.40921e-06
4.62223e-05
1.53062e-06
4.86109e-05
-5.63161e-07
5.37926e-05
-6.12635e-06
6.07149e-05
-1.00383e-05
-1.48713e-05
7.07364e-05
-1.20346e-14
-1.27667e-16
-2.83958e-12
-1.27305e-14
-2.99486e-11
1.01123e-12
-5.69055e-16
2.09966e-14
-5.1735e-16
-5.94219e-19
-7.97173e-16
1.43847e-16
-5.72636e-15
1.67153e-16
-3.3525e-15
6.19919e-16
-1.67119e-14
4.19801e-16
-1.03246e-12
1.7119e-16
-3.07589e-11
-5.48117e-13
-6.78794e-10
-5.07193e-13
-1.09938e-08
-1.86874e-12
-1.42715e-07
-2.01369e-11
-8.34352e-07
-6.82602e-10
-1.6142e-06
-2.28417e-09
-2.71339e-06
-2.14793e-09
-5.19123e-07
-1.99093e-08
8.85497e-06
-3.66135e-07
2.66231e-05
-3.89837e-06
4.50191e-05
-6.9928e-06
5.4568e-05
-8.64357e-06
-1.20116e-05
6.08203e-05
-1.34885e-16
-1.7513e-20
-8.91279e-14
-1.1813e-16
-2.09464e-14
8.31957e-17
-2.61068e-18
3.86953e-17
-1.73828e-17
1.21788e-18
-1.16279e-17
2.25363e-17
5.58966e-19
2.61971e-17
4.53932e-16
1.98648e-17
4.10357e-14
4.81803e-15
4.20533e-13
1.35358e-13
-3.91401e-14
4.11811e-13
-5.20931e-13
7.22012e-13
-1.65794e-12
4.88224e-20
-2.05907e-11
-4.78387e-13
-7.3314e-11
-6.29082e-10
-1.24997e-10
-2.22962e-09
-9.7881e-10
-1.26703e-09
-2.03224e-08
-4.11182e-10
-3.85051e-07
-1.26438e-09
-8.78961e-07
-2.00625e-09
-1.25139e-06
-1.18976e-09
6.57228e-07
-1.10027e-09
-8.26177e-10
4.39347e-06
-1.7684e-20
1.04622e-24
-1.1819e-16
-8.11001e-21
-3.95998e-17
9.08206e-21
-2.10349e-17
1.67978e-18
-5.68863e-17
1.71775e-17
-6.70258e-17
7.98447e-17
-2.8077e-17
1.30449e-16
0
2.88994e-16
-7.21362e-13
4.15943e-14
-1.1881e-12
-1.45357e-12
3.92492e-12
-3.78903e-12
2.90252e-12
-2.15291e-12
1.51914e-12
3.82701e-13
-3.97628e-15
5.78884e-13
-3.66465e-10
-2.84279e-12
-3.81665e-10
-1.09973e-09
-3.19623e-10
-9.02947e-10
-2.14776e-10
-5.3679e-10
-1.8869e-10
-1.31491e-09
-2.94675e-10
-1.96143e-09
-4.54975e-10
-1.28635e-09
-5.22371e-10
-1.24584e-09
-3.49399e-10
-1.27027e-09
-1.2016e-23
1.39371e-24
-1.20222e-20
-5.22239e-22
-7.92594e-19
-2.24267e-21
-1.48801e-17
1.63449e-18
-6.57461e-17
2.29046e-17
-7.09552e-17
8.5045e-17
-1.95241e-17
1.27736e-16
0
1.80357e-16
-6.22495e-13
8.39683e-14
-3.03702e-12
-5.83193e-13
-3.41774e-12
-2.49615e-12
-1.59294e-12
-3.06554e-12
0
-4.05576e-13
1.48423e-12
4.70826e-13
7.17431e-12
-7.13807e-12
8.38929e-11
-1.0682e-11
-1.01023e-11
-2.1051e-14
1.09229e-10
-4.98106e-16
3.74562e-10
-2.37984e-13
5.81996e-10
-4.76312e-12
3.1096e-10
-1.9589e-10
1.03954e-09
-5.50307e-09
-4.00362e-09
8.60636e-10
-1.10695e-24
5.24072e-25
-1.33251e-21
-5.7806e-23
-3.62237e-19
-2.43966e-21
-1.08802e-17
1.09247e-18
-4.95218e-17
1.84206e-17
-6.1589e-17
6.97405e-17
-4.2557e-17
1.10752e-16
0
1.11687e-16
0
1.40939e-16
-1.11242e-12
-1.23709e-16
-1.39033e-12
-1.18924e-15
-2.68605e-13
-8.7395e-15
0
-3.18326e-14
2.11731e-12
-2.5247e-12
4.77484e-12
-1.61963e-11
1.21339e-14
-5.91879e-12
-1.78882e-17
-9.1815e-15
-3.34317e-16
-7.49445e-16
-1.42279e-13
-9.66051e-14
2.08476e-12
-2.20761e-11
7.16873e-10
-9.17054e-10
1.02501e-08
-1.18139e-08
-1.99838e-08
1.58166e-08
-1.19242e-25
1.26658e-25
-1.21888e-22
-7.41488e-24
-7.25614e-20
-8.4116e-22
-3.86613e-18
2.78058e-19
-2.53644e-17
7.1035e-18
-3.19959e-17
3.5249e-17
-1.86789e-17
6.81123e-17
-8.13408e-18
1.04799e-16
-2.02359e-18
1.86273e-16
-9.6994e-17
0
-2.26505e-16
-1.03783e-15
-4.18757e-15
-4.73136e-15
-4.35625e-14
-2.72733e-14
1.60638e-12
-5.05623e-12
6.62583e-12
-1.23098e-11
9.06602e-15
-2.98085e-12
-6.74391e-17
-4.62041e-17
-7.74652e-16
-5.11453e-16
0
-1.30309e-13
0
-5.71988e-11
2.37715e-10
-8.7736e-10
2.54365e-09
-1.25417e-09
-2.55114e-08
8.19762e-09
-1.58921e-26
4.88128e-26
-1.39455e-23
-1.13939e-24
-1.26912e-20
-2.13459e-22
-7.85296e-19
6.09106e-20
-6.84268e-18
1.45764e-18
-1.42527e-17
8.5396e-18
-8.94185e-18
2.42127e-17
7.68645e-18
3.99388e-17
1.04771e-16
1.34335e-16
3.86618e-16
1.43202e-16
5.16611e-16
-2.77182e-15
6.92553e-16
-1.3564e-14
0
-5.75471e-14
5.73343e-13
-1.51575e-15
3.84932e-13
-7.85499e-16
-3.31004e-16
-3.83691e-16
-1.64442e-16
-2.06175e-16
-6.19505e-16
-4.07104e-17
-1.30817e-13
-1.85569e-16
-8.65154e-11
-7.59619e-14
0
-7.39266e-12
-1.21803e-09
-5.31545e-11
-5.52306e-09
-4.93151e-09
-4.31668e-27
3.9122e-26
-1.95787e-24
-1.58963e-25
-2.79939e-21
-3.64673e-23
-1.72303e-19
1.59516e-20
-1.41638e-18
3.21749e-19
-3.90704e-18
1.52348e-18
-3.71853e-18
4.57347e-18
-4.65891e-19
9.92489e-18
9.77048e-17
8.6034e-17
1.38651e-15
8.07004e-18
2.66108e-15
-3.04524e-15
2.08572e-15
-1.50266e-14
-9.77542e-19
-2.07561e-14
-8.16444e-18
-1.41052e-15
-2.24257e-17
-6.75962e-16
-4.66237e-17
-2.63773e-16
-1.26288e-17
-1.43412e-16
-1.19885e-17
-3.01915e-17
-2.12493e-16
-2.79224e-17
-7.41737e-14
-2.06549e-15
-7.26162e-12
-2.08272e-13
-5.39225e-11
-6.74491e-12
-4.68942e-10
-7.01106e-09
-2.40214e-27
3.78726e-26
-2.10678e-25
-1.92407e-26
-5.13002e-22
-4.32899e-24
-3.57461e-20
3.2445e-21
-2.62492e-19
6.4972e-20
-9.4148e-19
2.87912e-19
-2.34173e-18
1.1638e-18
-3.4978e-18
3.90596e-18
-2.60499e-17
4.39314e-18
-1.20636e-16
-1.57974e-17
-1.18958e-15
-1.77707e-15
-2.99044e-15
-8.82812e-15
-8.77162e-16
-1.48779e-14
-2.64598e-16
-2.55897e-15
-8.01465e-17
-8.11289e-16
-6.37001e-17
-1.66726e-16
-1.58625e-17
-4.68851e-17
-1.2283e-17
-1.99822e-17
-2.71845e-17
-1.91312e-17
-2.08878e-15
-3.17755e-17
-2.10291e-13
-1.2479e-16
-6.95612e-12
-9.237e-16
-5.70248e-15
-1.36554e-09
-9.14968e-28
3.39395e-26
-2.10891e-26
-2.35865e-27
-7.58947e-23
-3.82794e-25
-6.0536e-21
5.47529e-22
-4.46138e-20
1.11181e-20
-2.52925e-19
5.21908e-20
-1.6282e-18
3.16411e-19
-2.8397e-18
1.36312e-18
-8.69175e-18
1.87751e-18
-2.89302e-16
-1.73471e-18
-5.17776e-15
-2.42871e-16
-6.49892e-15
-1.72265e-15
-2.55171e-15
-2.78729e-15
-8.06597e-16
-1.88527e-15
-1.76315e-16
-4.6566e-16
-3.05109e-17
-4.24658e-17
-1.19696e-17
-1.17662e-17
-1.34457e-17
-8.8109e-18
-2.38604e-17
-1.41336e-17
-3.12542e-17
-3.60651e-17
-6.23528e-17
-1.05507e-16
-1.9714e-16
-8.142e-16
-5.37295e-15
-5.8623e-16
-1.40788e-28
9.30015e-27
-2.70515e-27
-3.22065e-28
-1.1204e-23
-1.91933e-27
-9.58929e-22
8.54678e-23
-6.64889e-21
1.61798e-21
-4.25563e-20
7.25761e-21
-4.6813e-19
5.85374e-20
-1.97453e-18
5.08827e-19
-8.22998e-18
1.88035e-18
-1.21235e-16
1.98076e-18
-8.07265e-16
-9.26132e-18
-1.44706e-15
-1.97037e-17
-1.73284e-15
-2.35012e-17
-5.28178e-16
-1.17582e-16
-4.02695e-17
-4.52816e-17
-8.87083e-18
-4.06275e-18
-5.90549e-18
-1.22242e-18
-8.6942e-18
-1.12314e-18
-2.35408e-17
-6.09994e-18
-5.58122e-17
-2.45235e-17
-2.92809e-16
-8.58435e-17
-4.32095e-15
-9.26722e-16
-8.10983e-15
-1.79456e-14
-1.80505e-29
5.36191e-28
-4.66224e-28
-5.16283e-29
-1.47287e-24
1.09479e-26
-1.26206e-22
1.06846e-23
-8.49378e-22
1.94158e-22
-6.17123e-21
9.32151e-22
-9.39129e-20
1.206e-20
-1.43875e-18
1.86032e-19
-1.52383e-17
1.61229e-18
-2.86816e-17
2.71978e-18
-1.57125e-17
1.27269e-19
-6.14576e-18
-1.29514e-19
-9.12648e-17
-2.40307e-19
-5.75567e-17
-3.15779e-19
-5.41035e-18
-6.52838e-19
-1.20874e-18
-2.74199e-19
-9.29333e-19
-1.36139e-19
-2.05024e-18
-9.29763e-20
-1.2644e-17
-2.12387e-19
-4.78505e-17
-3.25887e-18
-3.52127e-16
-3.19319e-17
-7.38219e-15
-2.07769e-16
-7.28364e-16
-5.13198e-14
-2.56934e-30
1.96117e-29
-1.2062e-28
-1.07945e-29
-1.66443e-25
4.01741e-27
-1.28568e-23
1.04116e-24
-8.5932e-23
1.81633e-23
-7.92409e-22
1.05714e-22
-2.92983e-20
2.90581e-21
-9.47548e-19
6.82099e-20
-4.84439e-18
4.94123e-19
-4.13176e-18
5.45299e-19
-1.06065e-18
2.12027e-19
-1.02635e-18
5.14269e-20
-4.68613e-19
-6.05837e-20
-8.18636e-19
-5.93067e-20
-4.91837e-19
-2.27371e-20
-2.29349e-19
-1.69117e-20
-1.22121e-19
-1.12817e-20
-1.54268e-19
-1.01393e-20
-8.75372e-19
-5.14056e-20
-1.45223e-17
-6.67727e-19
-1.73237e-16
-6.47799e-18
-1.29384e-15
-4.24481e-17
-5.8129e-17
-5.78423e-15
-2.09258e-31
1.29759e-30
-3.84401e-29
-2.52417e-30
-1.63022e-26
9.22655e-28
-9.08624e-25
7.93817e-26
-6.87858e-24
1.26042e-24
-1.45729e-22
1.1242e-23
-8.32294e-21
6.20106e-22
-1.25116e-19
8.80046e-21
-4.55973e-19
3.60041e-20
-9.24041e-19
9.67229e-20
-1.24478e-18
2.04539e-19
-1.04128e-18
2.8935e-19
-5.26436e-19
1.3144e-19
-9.3961e-20
9.96096e-21
-5.30293e-20
-2.16345e-22
-3.03667e-20
-3.1658e-22
-2.52304e-20
-3.4356e-22
-3.88906e-20
-5.0202e-22
-3.99396e-19
-5.2519e-21
-5.53578e-18
-4.45291e-20
-8.20922e-17
1.25976e-19
-8.60719e-16
1.11961e-17
1.5966e-16
-3.62893e-15
-1.48423e-32
9.06895e-32
-9.89911e-30
-3.12636e-31
-1.44883e-27
1.29882e-28
-4.41958e-26
5.01809e-27
-4.39996e-25
6.11133e-26
-2.06539e-23
1.10545e-24
-9.01841e-22
6.49883e-23
-1.07693e-20
8.15139e-22
-7.45333e-20
6.03648e-21
-3.92089e-19
3.69646e-20
-7.73171e-19
1.30951e-19
-5.19191e-19
1.80208e-19
-1.66575e-19
3.48409e-20
-2.08801e-20
7.28255e-21
-5.20629e-21
6.24624e-22
-3.24482e-21
1.18333e-22
-3.80471e-21
8.44147e-23
-1.01619e-20
1.75998e-22
-1.87643e-19
4.4083e-21
-2.65505e-18
9.19525e-20
-2.96751e-17
1.22124e-18
-2.96053e-16
1.19717e-17
9.92924e-17
-1.55191e-15
-9.39003e-34
4.43286e-33
-1.53977e-30
-1.7233e-32
-1.24068e-28
1.13387e-29
-1.63888e-27
2.7915e-28
-2.2021e-26
1.90438e-27
-2.24242e-24
1.01872e-25
-6.83583e-23
6.17353e-24
-1.05774e-21
8.82256e-23
-1.60777e-20
1.00327e-21
-7.4636e-20
6.36518e-21
-9.61189e-20
1.0276e-20
-4.79246e-20
8.22546e-21
-1.64949e-20
2.33253e-21
-3.84091e-21
7.90179e-22
-8.85422e-22
2.25825e-22
-5.15964e-22
5.27626e-23
-6.08023e-22
3.43222e-23
-2.62892e-21
1.10633e-22
-7.55637e-20
3.29838e-21
-1.30561e-18
8.32468e-20
-1.15757e-17
1.06878e-18
-8.69265e-17
7.83712e-18
5.22372e-17
-5.82511e-16
-4.31652e-35
1.44371e-34
-1.28516e-31
-3.48984e-34
-1.02184e-29
5.62626e-31
-6.43046e-29
1.15374e-29
-8.6024e-28
4.2084e-29
-1.63351e-25
8.66425e-27
-6.58495e-24
6.3355e-25
-1.77527e-22
1.26973e-23
-2.34269e-21
1.41991e-22
-5.75084e-21
4.75581e-22
-6.11368e-21
5.4949e-22
-4.34057e-21
4.16468e-22
-2.04853e-21
3.46329e-22
-6.61125e-22
1.67247e-22
-1.47374e-22
5.41857e-23
-6.91378e-23
1.12989e-23
-8.37943e-23
6.10213e-24
-6.26126e-22
4.14485e-23
-2.52532e-20
1.49646e-21
-5.94535e-19
4.83908e-20
-5.29646e-18
7.5013e-19
-3.14133e-17
5.48298e-18
3.27288e-17
-2.48945e-16
-1.30766e-36
4.16192e-36
-4.69741e-33
-6.84188e-38
-3.95402e-31
8.34333e-33
-1.86923e-30
1.71306e-31
-4.61544e-29
1.55933e-30
-1.52784e-26
8.83009e-28
-8.40092e-25
7.16799e-26
-1.86311e-23
1.39606e-24
-1.5535e-22
9.02517e-24
-3.31726e-22
2.60912e-23
-3.81302e-22
4.00393e-23
-3.91414e-22
4.67001e-23
-2.66861e-22
4.49722e-23
-1.01899e-22
2.85307e-23
-1.89719e-23
9.51453e-24
-7.28039e-24
1.77506e-24
-9.75131e-24
1.01555e-24
-1.43728e-22
1.42693e-23
-7.52346e-21
5.79352e-22
-2.51994e-19
2.48786e-20
-2.68945e-18
5.01971e-19
-1.54357e-17
4.11746e-18
2.31947e-17
-1.29489e-16
-2.72517e-38
1.52227e-37
-4.76266e-36
3.15276e-40
-3.55504e-34
9.20663e-36
-9.65277e-33
9.77329e-34
-3.00748e-30
1.13832e-31
-1.36953e-27
5.67916e-29
-9.3954e-26
5.58525e-27
-1.36567e-24
1.10846e-25
-8.27672e-24
6.20829e-25
-2.41576e-23
2.01588e-24
-3.35405e-23
4.15431e-24
-3.6925e-23
5.00021e-24
-2.90993e-23
4.81433e-24
-1.21635e-23
3.01793e-24
-2.47062e-24
1.07102e-24
-1.25933e-24
2.92973e-25
-1.77538e-24
2.52894e-25
-3.40506e-23
4.7573e-24
-2.25499e-21
2.25359e-22
-1.13861e-19
1.28592e-20
-1.60994e-18
3.45762e-19
-8.95603e-18
3.22588e-18
1.61067e-17
-6.39333e-17
-3.37309e-40
3.71359e-39
-2.23253e-38
3.20935e-41
-5.64425e-36
3.49143e-37
-3.49848e-34
7.00355e-35
-1.05198e-31
5.37295e-33
-5.90225e-29
1.19994e-30
-5.20597e-27
1.77947e-28
-8.59375e-26
4.89223e-27
-5.54166e-25
3.82797e-26
-1.75317e-24
1.42603e-25
-2.48038e-24
2.83366e-25
-2.70517e-24
3.29004e-25
-2.08171e-24
2.89765e-25
-8.49778e-25
1.66035e-25
-1.97018e-25
5.81277e-26
-1.86905e-25
2.58179e-26
-2.92118e-25
4.62799e-26
-8.44705e-24
1.50973e-24
-6.89792e-22
8.82647e-23
-5.07454e-20
6.25993e-21
-1.03057e-18
2.20956e-19
-6.0526e-18
2.45745e-18
1.13809e-17
-2.90142e-17
-6.14022e-42
5.06592e-41
-3.58015e-40
1.02769e-42
-2.78227e-37
7.84066e-39
-1.42835e-35
2.03903e-36
-1.36786e-33
6.01648e-35
-1.03644e-30
8.11613e-33
-1.38355e-28
2.10012e-30
-3.05407e-27
8.98844e-29
-2.45139e-26
9.89051e-28
-8.18665e-26
4.44489e-27
-1.14268e-25
8.77204e-27
-1.22706e-25
1.00173e-26
-8.99375e-26
8.60021e-27
-3.48687e-26
4.84336e-27
-1.22976e-26
1.91492e-27
-1.38999e-26
1.4351e-27
-5.37762e-26
1.07723e-26
-2.20972e-24
4.79225e-25
-2.09878e-22
3.26702e-23
-2.01625e-20
2.66645e-21
-5.69097e-19
1.16072e-19
-4.02896e-18
1.57101e-18
7.71334e-18
-1.45649e-17
-5.0172e-44
7.0748e-43
-1.18032e-42
6.36379e-45
-1.46537e-39
1.1926e-41
-8.88737e-38
3.38262e-39
-9.48142e-36
2.29103e-37
-5.22664e-33
4.48217e-35
-1.1392e-30
7.76945e-33
-4.55721e-29
5.12619e-31
-5.17106e-28
8.67921e-30
-1.70049e-27
4.55658e-29
-2.27904e-27
8.60887e-29
-2.43054e-27
9.76146e-29
-1.81409e-27
8.76605e-29
-8.1653e-28
5.85707e-29
-5.59012e-28
3.87168e-29
-7.5086e-28
8.39641e-29
-1.15094e-26
2.88345e-27
-5.7047e-25
1.42882e-25
-5.90464e-23
1.04767e-23
-6.71052e-21
9.31744e-22
-2.42073e-19
4.69639e-20
-2.12948e-18
7.48832e-19
4.18621e-18
-7.27156e-18
-1.50491e-46
1.12311e-44
-4.2375e-45
1.99987e-47
-4.10744e-42
6.38194e-44
-4.40332e-40
1.77941e-41
-7.48838e-38
1.8315e-39
-3.09136e-35
3.59114e-37
-6.26269e-33
4.6687e-35
-2.7594e-31
2.37158e-33
-3.25789e-30
3.37074e-32
-1.09629e-29
1.67108e-31
-1.64328e-29
3.59489e-31
-1.80359e-29
4.90357e-31
-1.55165e-29
5.3966e-31
-1.08143e-29
5.08317e-31
-1.26025e-29
7.72375e-31
-7.71232e-29
1.43803e-29
-2.539e-27
7.50795e-28
-1.35792e-25
3.84319e-26
-1.45637e-23
2.8387e-24
-1.86395e-21
2.67976e-22
-7.96918e-20
1.53061e-20
-8.44963e-19
2.77575e-19
1.76236e-18
-3.16206e-18
-5.17968e-49
1.79502e-46
-1.97702e-47
2.34932e-49
-2.079e-44
4.45419e-46
-2.90066e-42
1.30416e-43
-5.79072e-40
1.56779e-41
-2.03818e-37
2.87064e-39
-3.77393e-35
3.43294e-37
-1.6166e-33
1.60231e-35
-1.83742e-32
2.22216e-34
-6.6435e-32
1.16195e-33
-1.25931e-31
2.98269e-33
-1.6601e-31
5.22761e-33
-1.71059e-31
7.14285e-33
-1.97036e-31
9.20711e-33
-5.14938e-31
6.80617e-32
-1.41919e-29
3.89238e-30
-5.58984e-28
1.91104e-28
-2.92436e-26
9.49033e-27
-3.07212e-24
6.68012e-25
-4.44502e-22
6.64156e-23
-2.23935e-20
4.39765e-21
-2.78637e-19
9.05759e-20
6.46962e-19
-1.22225e-18
-9.55909e-52
2.81842e-48
-1.81082e-49
9.75774e-52
-1.06108e-46
5.31495e-48
-1.85253e-44
1.402e-45
-4.33398e-42
1.27551e-43
-1.37098e-39
2.31557e-41
-2.2305e-37
2.55933e-39
-9.09107e-36
1.12705e-37
-1.06879e-34
1.5812e-36
-4.47135e-34
8.98509e-36
-1.06009e-33
2.67364e-35
-1.62977e-33
5.47155e-35
-2.03282e-33
8.44037e-35
-3.23277e-33
2.53313e-34
-6.21601e-32
1.36392e-32
-2.91113e-30
9.60953e-31
-1.18731e-28
4.57904e-29
-5.7248e-27
2.14845e-27
-5.70678e-25
1.38152e-25
-9.43282e-23
1.42331e-23
-5.33995e-21
1.09709e-21
-7.18813e-20
2.51579e-20
2.00249e-19
-4.16037e-19
4.37842e-51
4.34972e-50
-4.01812e-52
1.39645e-53
-1.0878e-48
5.63505e-50
-1.84637e-46
1.54054e-47
-3.12293e-44
1.09243e-45
-9.19944e-42
1.86555e-43
-1.39325e-39
1.9764e-41
-5.54748e-38
8.55881e-40
-6.58142e-37
1.20759e-38
-2.91889e-36
6.92265e-38
-7.26073e-36
2.04262e-37
-1.08741e-35
4.16933e-37
-1.77668e-35
1.03074e-36
-1.60414e-34
2.81376e-35
-1.04371e-32
3.10431e-33
-5.66334e-31
2.00673e-31
-2.33081e-29
9.74802e-30
-9.84397e-28
4.22377e-28
-8.47494e-26
2.32423e-26
-1.59701e-23
2.30647e-24
-1.09374e-21
2.18007e-22
-1.56066e-20
5.99488e-21
5.07033e-20
-1.06859e-19
2.00006e-52
6.55947e-52
-2.30198e-54
4.42008e-55
-1.03842e-50
5.16749e-52
-1.84694e-48
1.50136e-49
-2.34345e-46
1.10566e-47
-6.17973e-44
1.50676e-45
-8.9102e-42
1.54891e-43
-3.53995e-40
6.6385e-42
-4.2441e-39
9.48275e-41
-1.86552e-38
5.47326e-40
-4.00561e-38
1.615e-39
-7.41005e-38
3.95594e-39
-3.47482e-37
6.58833e-38
-2.01936e-35
5.78395e-36
-1.62473e-33
5.43645e-34
-9.54135e-32
3.44077e-32
-3.96382e-30
1.70981e-30
-1.44118e-28
6.95336e-29
-9.42011e-27
3.18182e-27
-1.89493e-24
2.69184e-25
-1.82941e-22
3.20687e-23
-2.98764e-21
1.19086e-21
1.0757e-20
-1.9786e-20
5.05735e-54
9.60277e-54
-1.82149e-56
8.1823e-57
-8.81747e-53
4.4394e-54
-1.65632e-50
1.32656e-51
-2.05691e-48
1.02013e-49
-4.21435e-46
1.22624e-47
-5.85191e-44
1.23182e-45
-2.32743e-42
5.23524e-44
-2.79953e-41
7.5732e-43
-1.15215e-40
4.4756e-42
-2.45398e-40
1.4848e-41
-9.19999e-40
1.04637e-40
-3.05534e-38
1.07966e-38
-2.61922e-36
9.29518e-37
-2.09272e-34
7.37833e-35
-1.28935e-32
4.58993e-33
-5.54158e-31
2.3892e-31
-1.85302e-29
9.74983e-30
-8.59747e-28
4.00882e-28
-1.53887e-25
2.57754e-26
-2.30831e-23
3.51679e-24
-4.9233e-22
1.88923e-22
1.95475e-21
-2.72017e-21
1.07416e-55
1.35476e-55
-1.81989e-58
1.72783e-58
-7.09377e-55
3.62066e-56
-1.35999e-52
1.12535e-53
-1.67813e-50
8.96596e-52
-2.97503e-48
1.01069e-49
-4.01366e-46
9.96059e-48
-1.5902e-44
4.20021e-46
-1.83021e-43
6.13508e-45
-6.41064e-43
3.77085e-44
-2.14288e-42
2.02362e-43
-4.3111e-41
9.12792e-42
-3.53478e-39
1.50547e-39
-2.96017e-37
1.14376e-37
-2.17517e-35
7.78275e-36
-1.39564e-33
4.90031e-34
-6.38545e-32
2.77601e-32
-2.24359e-30
1.22528e-30
-7.91158e-29
5.24103e-29
-9.95234e-27
2.60694e-27
-2.17032e-24
3.29397e-25
-6.52205e-23
2.42445e-23
3.06374e-22
-3.07573e-22
2.01909e-57
1.8269e-57
-1.39466e-60
3.28295e-60
-5.37615e-57
2.95307e-58
-1.0912e-54
9.47984e-56
-1.34856e-52
7.81392e-54
-2.21591e-50
8.47777e-52
-2.91989e-48
8.20445e-50
-1.13683e-46
3.43047e-48
-1.09678e-45
5.06447e-47
-4.39837e-45
3.39281e-46
-3.72775e-44
6.129e-45
-4.33457e-42
1.05544e-42
-4.11654e-40
1.77744e-40
-2.81552e-38
1.09956e-38
-1.9651e-36
6.84079e-37
-1.33447e-34
4.85128e-35
-6.62291e-33
2.97301e-33
-2.74546e-31
1.49109e-31
-8.77071e-30
7.31561e-30
-7.20585e-28
3.27263e-28
-1.8139e-25
3.32351e-26
-7.20757e-24
2.79889e-24
4.17662e-23
-3.20032e-23
3.39159e-59
2.33644e-59
-7.29075e-63
5.57477e-62
-4.07507e-59
2.43175e-60
-8.89306e-57
8.10819e-58
-1.10952e-54
7.06884e-56
-1.73563e-52
7.25425e-54
-2.23642e-50
6.89425e-52
-8.38075e-49
2.85512e-50
-6.04297e-48
4.36416e-49
-4.0131e-47
4.44904e-48
-1.80014e-45
4.38635e-46
-4.73425e-43
1.0036e-43
-3.77954e-41
1.38419e-41
-2.29398e-39
7.78671e-40
-1.81049e-37
5.99481e-38
-1.29786e-35
5.07487e-36
-7.06622e-34
3.17345e-34
-3.58486e-32
1.83099e-32
-1.19773e-30
1.01832e-30
-7.53241e-29
4.59827e-29
-1.77001e-26
3.90664e-27
-8.15579e-25
3.17284e-25
5.06831e-24
-3.597e-24
5.06974e-61
2.81719e-61
5.39565e-65
8.49434e-64
-3.08778e-61
2.02577e-62
-7.44345e-59
7.05319e-60
-9.59916e-57
6.52867e-58
-1.40901e-54
6.32881e-56
-1.73567e-52
5.9158e-54
-5.19103e-51
2.42701e-52
-4.42634e-50
4.03694e-51
-9.70309e-49
1.5267e-49
-1.41816e-46
4.15702e-47
-2.76685e-44
4.77865e-45
-2.1251e-42
4.90786e-43
-1.7039e-40
4.27468e-41
-1.8009e-38
5.21294e-39
-1.30555e-36
4.966e-37
-7.81521e-35
3.12005e-35
-4.66697e-33
2.02344e-33
-1.71345e-31
1.21138e-31
-9.91652e-30
5.74929e-30
-2.04222e-27
4.45915e-28
-1.00386e-25
3.30203e-26
5.46532e-25
-4.94052e-25
6.74214e-63
3.19309e-63
2.6463e-66
1.17304e-65
-2.29737e-63
1.67634e-64
-6.2524e-61
6.13581e-62
-8.36546e-59
6.02856e-60
-1.15336e-56
5.60739e-58
-1.33192e-54
5.17314e-56
-2.65568e-53
2.11982e-54
-4.4108e-52
4.06222e-53
-5.78521e-50
5.69597e-51
-7.37796e-48
1.54288e-48
-6.77077e-46
9.91737e-47
-7.15831e-44
9.83958e-45
-1.07639e-41
1.84566e-42
-1.45437e-39
3.08351e-40
-1.0969e-37
3.13616e-38
-7.25101e-36
2.17936e-36
-4.85018e-34
1.56387e-34
-2.01198e-32
1.01478e-32
-1.16767e-30
5.30191e-31
-2.09551e-28
3.87136e-29
-1.09791e-26
2.72188e-27
5.00202e-26
-6.82016e-26
8.07014e-65
3.40062e-65
5.24334e-68
1.48011e-67
-1.63464e-65
1.36622e-66
-5.08018e-63
5.25277e-64
-7.05381e-61
5.45566e-62
-9.23176e-59
5.02503e-60
-9.59232e-57
4.58186e-58
-1.85599e-55
1.91852e-56
-5.13198e-54
4.85992e-55
-1.25344e-51
7.09544e-53
-1.21523e-49
1.35628e-50
-1.18872e-47
1.3179e-48
-2.12774e-45
2.71336e-46
-4.24199e-43
5.32736e-44
-6.07926e-41
7.89926e-42
-5.39633e-39
8.73077e-40
-4.16065e-37
8.06701e-38
-3.1608e-35
6.82119e-36
-1.6091e-33
5.22992e-34
-9.65711e-32
3.30199e-32
-1.50536e-29
2.28635e-30
-8.85018e-28
1.64789e-28
3.69077e-27
-7.72975e-27
8.52772e-67
3.41611e-67
7.37241e-70
1.68056e-69
-1.07135e-67
1.06282e-68
-3.82695e-65
4.31068e-66
-5.52654e-63
4.72247e-64
-6.9562e-61
4.52315e-62
-6.44689e-59
4.10566e-60
-1.5204e-57