/*--------------------------------*- C++ -*----------------------------------*\
  =========                 |
  \\      /  F ield         | OpenFOAM: The Open Source CFD Toolbox
   \\    /   O peration     | Website:  https://openfoam.org
    \\  /    A nd           | Version:  13
     \\/     M anipulation  |
\*---------------------------------------------------------------------------*/
FoamFile
{
    format      ascii;
    class       volScalarField;
    location    "0.55";
    object      alpha.water;
}
// * * * * * * * * * * * * * * * * * * * * * * * * * * * * * * * * * * * * * //

dimensions      [];

internalField   nonuniform List<scalar> 
2268
(
1
1
1
1
1
1
1
1
1
1
1
1
1
1
1
1
1
1
0.979357
0.905918
0.933031
0.998684
0.998684
1
1
1
1
1
1
1
1
1
1
1
1
1
1
1
1
1
1
0.999741
0.937547
0.92141
0.984856
0.998684
1
1
1
1
1
1
1
1
1
1
1
1
1
1
1
1
1
1
1
0.998491
0.92141
0.958645
0.998682
1
1
1
1
1
1
1
1
1
1
1
1
1
1
1
1
1
1
1
1
0.930422
0.95164
0.997376
1
1
1
1
1
1
1
1
1
1
1
1
1
1
1
1
1
1
1
1
0.992003
0.995164
0.999264
1
1
1
1
1
1
0.999999
0.999999
0.999999
1
1
1
1
1
1
1
1
1
1
1
1
0.999989
0.99979
1
1
1
0.999998
0.999997
0.999986
0.999967
0.999972
0.999986
0.999995
0.999998
0.999999
1
1
1
1
1
1
1
1
1
1
0.99979
1
0.999995
0.999946
0.999877
0.999713
0.998929
0.998845
0.999278
0.999674
0.999875
0.999954
0.999982
0.999992
0.999997
1
1
1
1
1
1
1
1
0.999792
0.252732
0.201968
0.175127
0.174108
0.0517495
0.0387192
0.290138
0.294299
0.280749
0.368467
0.530931
0.58473
0.61073
0.64924
0.699757
0.737466
0.746688
0.752939
0.66492
0.569979
0.201963
0.211998
0.0487964
0.0250394
0.0448116
0.230303
0.0261185
0.00298853
9.35109e-06
0.001493
0.0495305
0.132175
0.209987
0.300574
0.448965
0.640586
0.770361
0.77015
0.71009
0.801143
0.927913
0.0976392
0.0246337
0.073409
0.084118
6.40891e-05
5.67119e-06
4.12613e-06
9.04904e-06
2.13827e-05
6.59884e-05
0.00022839
0.000876021
0.00365307
0.0989081
0.533091
0.779869
0.95501
0.999976
0.999976
0.0534474
0.0250922
0.0749361
0.00501963
4.97527e-06
2.907e-06
3.10125e-06
3.98839e-06
8.51514e-06
1.95443e-05
6.44161e-05
0.000254411
0.00101178
0.00447428
0.236582
0.783917
0.999976
0.999976
0.999976
0.506585
0.0274084
0.0689349
0.000656979
2.94316e-06
2.761e-06
2.81719e-06
3.06685e-06
4.22596e-06
8.48421e-06
1.9275e-05
6.27744e-05
0.000267329
0.00152205
0.1309
0.787944
0.999976
0.999976
0.999976
0.999975
0.108424
0.0617214
0.000509386
2.76156e-06
2.75464e-06
2.7508e-06
2.81719e-06
3.18052e-06
4.50157e-06
9.21089e-06
2.41321e-05
8.34266e-05
0.000753335
0.0825759
0.792782
0.999851
0.999922
0.999975
0.999972
0.20816
0.043166
0.000180569
2.78234e-06
2.74961e-06
2.75464e-06
2.96611e-06
6.35038e-06
1.87623e-05
2.45938e-05
3.74635e-05
3.36402e-05
0.000196546
0.0450346
0.795658
0.999668
0.999782
0.999973
0.985056
0.29812
0.0213144
5.06149e-06
2.83234e-06
2.75464e-06
2.99996e-06
4.03273e-06
3.41947e-05
5.83552e-05
3.9656e-05
2.88471e-05
2.30554e-05
2.94781e-05
0.0268593
0.797751
0.974537
0.893889
0.766605
0.671187
0.695199
0.772472
0.857923
0.910777
0.950105
0.980493
0.996082
0.99919
1
1
1
0.999998
0.999998
1
1
1
1
1
0.999968
0.291315
0.147606
0.0335922
0.0288122
0.0880241
0.166021
0.203723
0.231359
0.28595
0.374014
0.4911
0.624548
0.771857
0.909761
1
1
1
1
1
1
1
1
0.999999
7.35274e-12
1.01518e-11
1.97463e-08
2.01926e-09
8.00461e-13
7.13242e-12
4.3646e-11
1.66604e-10
8.39325e-11
3.31198e-10
8.10489e-09
0.00984837
0.0667816
0.156669
0.307197
0.501321
0.745365
0.974347
1
0.999996
0.999999
0.999997
0.999991
1.29134e-12
6.57399e-09
2.06519e-07
2.92617e-12
7.40251e-13
1.8682e-11
1.83151e-11
5.35565e-12
7.74827e-11
8.38931e-11
3.31006e-10
7.97875e-09
1.61942e-08
2.18913e-08
1.96201e-07
0.0170302
0.0551581
0.170584
0.356784
0.592821
0.816069
0.911746
0.930245
1.57772e-14
2.23617e-10
3.92221e-09
5.63562e-13
5.60473e-13
2.13594e-12
2.1784e-12
2.44523e-12
6.34728e-10
3.317e-08
9.28601e-08
1.59621e-08
1.63434e-08
1.66754e-08
2.18404e-08
1.41285e-07
5.65823e-07
1.14189e-06
6.04236e-06
0.00262409
0.0414178
0.108371
0.175977
1.21851e-18
1.22326e-16
1.82162e-14
7.19555e-13
3.24031e-12
7.37316e-12
1.06435e-11
1.24626e-11
1.33222e-08
3.67261e-07
5.04872e-07
3.89727e-07
4.07513e-08
4.46201e-08
1.49714e-05
2.92226e-05
1.9866e-05
1.01729e-05
1.01873e-05
1.02978e-05
1.0517e-05
1.03816e-05
1.01719e-05
4.01898e-19
1.04291e-16
2.42759e-14
7.23719e-13
5.15322e-12
1.2258e-11
1.57228e-11
1.65318e-11
2.58494e-08
4.3592e-07
5.04872e-07
5.04872e-07
2.00009e-07
5.49456e-08
5.54752e-08
2.55525e-05
2.20245e-05
1.13791e-05
2.59696e-05
3.11781e-05
1.56528e-05
3.2431e-05
2.25036e-05
9.45646e-20
1.16019e-17
9.83365e-15
5.37513e-13
4.88114e-12
1.30697e-11
1.74218e-11
1.75745e-11
3.01665e-10
1.0973e-07
3.71626e-07
1.01482e-07
1.87222e-08
1.42595e-07
5.66562e-07
1.20779e-11
5.68814e-12
9.92111e-12
9.85672e-12
1.13904e-07
4.15513e-06
0.000177472
0.000369312
1.90632e-20
6.32312e-19
2.07141e-15
2.1596e-13
2.96068e-12
1.0106e-11
1.52311e-11
2.07633e-11
7.10959e-11
7.11336e-11
7.11482e-11
7.1357e-11
1.41391e-10
5.65289e-07
1.09873e-06
1.3313e-07
1.51935e-12
9.23804e-12
9.40328e-10
4.78325e-07
1.89909e-05
0.000157295
0.000421283
4.58502e-21
6.05459e-20
4.20116e-16
5.79095e-14
9.70596e-13
4.45303e-12
9.35545e-12
1.43267e-11
4.83225e-11
1.60306e-10
3.2162e-10
6.76254e-10
3.97162e-09
2.04371e-07
6.87288e-07
7.93282e-08
1.35642e-12
1.12748e-12
1.00087e-12
1.25529e-06
1.00402e-05
1.4709e-07
0.000170548
2.17935e-21
8.57644e-21
9.64503e-17
1.59591e-14
2.61246e-13
1.22448e-12
3.13647e-12
5.89483e-12
4.89087e-11
5.57277e-10
1.14486e-09
2.51316e-09
5.95119e-09
7.8164e-12
7.67082e-12
7.64353e-12
7.66161e-12
1.19189e-12
7.81726e-13
9.50682e-13
1.97725e-11
1.82952e-09
1.3458e-05
1.88708e-21
2.13652e-21
1.70288e-17
3.63603e-15
6.0633e-14
2.78809e-13
9.52207e-13
2.95846e-12
1.02586e-11
2.39893e-10
1.2069e-09
2.70474e-09
2.38219e-09
1.18878e-10
3.57246e-11
8.37987e-12
4.56468e-12
9.64521e-13
6.37422e-13
7.22121e-13
9.65238e-13
8.49257e-12
1.65646e-06
1.6862e-21
3.92404e-22
2.52751e-18
6.52707e-16
1.16084e-14
5.74971e-14
2.94921e-13
1.22078e-12
2.42435e-12
3.11773e-11
4.74171e-10
1.86447e-09
1.22644e-09
2.53901e-10
6.1344e-11
9.99799e-12
1.52217e-12
6.72807e-13
6.35737e-13
9.13015e-13
9.13503e-13
9.68288e-13
1.20516e-12
7.89119e-22
5.96167e-23
3.94714e-19
1.02859e-16
1.82958e-15
8.98167e-15
6.26516e-14
4.48035e-13
1.6159e-12
8.6101e-12
7.13888e-11
1.94075e-10
2.33943e-10
1.78822e-10
2.89144e-11
1.80237e-12
4.33429e-13
2.96759e-13
5.36276e-13
1.31607e-12
2.96549e-12
2.2253e-11
1.32802e-10
1.15993e-22
1.13179e-23
6.39105e-20
1.33908e-17
2.3595e-16
1.18266e-15
1.16044e-14
1.37985e-13
1.08155e-12
4.15371e-12
5.31181e-12
1.6965e-12
7.79498e-13
9.51519e-12
2.95107e-12
2.19028e-13
5.59516e-14
4.18565e-14
2.21222e-13
9.80556e-13
3.50332e-12
3.63747e-11
3.41069e-10
6.58709e-24
2.76736e-24
1.11355e-20
1.39284e-18
2.41899e-17
1.30876e-16
2.24145e-15
4.73819e-14
4.10786e-13
8.9203e-13
4.56835e-13
1.19665e-13
9.78938e-14
4.31374e-14
6.26369e-14
2.16499e-14
9.17722e-15
5.32269e-15
1.11114e-14
1.57041e-13
1.62678e-12
1.15174e-11
5.14864e-11
3.93819e-25
1.00953e-24
1.84901e-21
1.14087e-19
1.90273e-18
1.29614e-17
4.68536e-16
8.40142e-15
4.55794e-14
9.71591e-14
1.37423e-13
1.47853e-13
1.04792e-13
2.71839e-14
4.68693e-15
2.45375e-15
1.3392e-15
1.05207e-15
5.55885e-15
6.98806e-14
7.21283e-13
6.77096e-12
3.57706e-11
2.75349e-26
3.48217e-25
2.40562e-22
7.52796e-21
1.1008e-19
1.1597e-18
5.98566e-17
9.00422e-16
5.66167e-15
2.38107e-14
6.46545e-14
8.56679e-14
3.235e-14
7.94437e-15
8.63642e-16
2.39195e-16
1.6343e-16
1.96874e-16
2.4348e-15
3.45263e-14
3.32559e-13
2.60607e-12
1.49762e-11
1.60076e-27
5.25456e-26
2.23904e-23
4.27353e-22
4.33775e-21
1.01266e-19
5.8215e-18
7.90938e-17
7.29405e-16
4.48412e-15
9.66556e-15
1.01889e-14
2.79247e-15
8.05982e-16
1.59477e-16
3.97913e-17
2.61124e-17
4.47287e-17
8.71609e-16
1.61322e-14
1.60059e-13
1.0045e-12
5.55037e-12
6.56157e-29
3.7765e-27
1.41285e-24
2.08768e-23
1.05814e-22
7.45087e-21
5.13987e-19
9.0855e-18
1.03487e-16
4.63042e-16
6.83717e-16
5.32249e-16
2.84003e-16
1.05684e-16
2.80575e-17
6.33942e-18
3.54986e-18
1.02287e-17
2.75579e-16
6.84115e-15
8.05941e-14
4.79192e-13
2.43691e-12
1.87226e-30
1.17215e-28
4.55955e-26
6.06474e-25
1.91122e-24
6.58664e-22
5.11812e-20
9.79053e-19
8.3123e-18
2.80552e-17
3.87777e-17
3.86548e-17
2.94572e-17
1.49616e-17
4.39536e-18
7.96522e-19
3.76344e-19
2.4904e-18
8.03827e-17
2.76045e-15
4.22925e-14
2.78078e-13
1.39301e-12
6.8753e-32
1.55504e-32
4.06451e-29
1.60988e-27
7.01592e-26
5.15633e-23
4.64809e-21
8.81566e-20
5.49803e-19
1.76274e-18
3.13616e-18
3.48599e-18
3.04679e-18
1.73263e-18
5.53259e-19
1.16808e-19
6.73755e-20
6.48224e-19
2.36546e-17
1.16871e-15
2.46707e-14
1.8634e-13
8.59127e-13
2.08983e-33
2.95795e-34
9.79618e-31
8.35629e-29
4.54603e-27
1.95658e-24
2.37027e-22
5.38141e-21
3.69298e-20
1.25451e-19
2.34692e-19
2.6349e-19
2.27218e-19
1.26989e-19
4.12386e-20
1.2256e-20
1.02276e-20
1.66167e-19
7.31595e-18
5.01362e-16
1.47203e-14
1.33509e-13
5.64418e-13
3.11399e-35
3.98731e-36
2.89733e-32
3.82737e-30
1.21619e-28
2.19971e-26
5.51666e-24
1.74944e-22
1.49645e-21
5.80807e-21
1.10919e-20
1.23639e-20
1.03594e-20
5.57067e-21
1.86072e-21
8.59183e-22
1.74393e-21
4.43281e-20
2.35641e-18
2.04183e-16
7.9165e-15
8.81408e-14
3.81412e-13
3.14198e-37
6.86908e-38
6.05504e-35
1.44958e-32
3.74524e-31
6.95848e-29
2.82519e-26
1.86811e-24
2.56139e-23
1.18685e-22
2.18541e-22
2.37232e-22
1.98306e-22
1.14145e-22
5.22655e-23
3.93703e-23
3.75982e-22
1.22496e-20
7.36226e-19
7.34147e-17
3.50069e-15
4.71001e-14
2.25616e-13
3.92077e-39
5.73996e-41
5.69524e-38
1.36811e-35
1.13225e-33
3.50498e-31
8.5262e-29
6.56021e-27
1.0394e-25
5.05736e-25
9.86686e-25
1.17467e-24
1.1248e-24
8.93359e-25
7.85942e-25
3.13598e-24
8.87876e-23
3.33383e-21
2.0945e-19
2.25552e-17
1.25715e-15
1.97404e-14
1.07245e-13
5.57453e-41
7.59891e-44
4.1539e-40
8.83288e-38
7.82598e-36
1.89916e-33
3.87767e-31
2.60265e-29
3.93004e-28
1.97848e-27
5.15037e-27
9.07147e-27
1.18557e-26
1.33491e-26
2.72249e-26
5.73911e-25
2.20137e-23
8.75968e-22
5.31271e-20
5.94869e-18
3.89557e-16
7.09185e-15
4.36651e-14
8.0446e-43
9.85209e-47
2.31995e-43
1.67432e-40
4.2132e-38
1.19055e-35
1.85119e-33
9.32734e-32
1.46394e-30
1.03868e-29
4.1235e-29
9.66303e-29
1.44788e-28
2.07309e-28
2.76574e-27
1.2976e-25
5.42931e-24
2.19047e-22
1.22539e-20
1.3991e-18
1.06767e-16
2.18023e-15
1.52195e-14
1.16281e-44
9.96401e-48
9.74703e-47
2.28448e-43
1.54212e-40
7.72547e-38
1.08949e-35
5.01033e-34
7.39673e-33
5.31805e-32
2.23237e-31
5.56107e-31
1.02293e-30
8.22768e-30
5.00104e-28
2.83716e-26
1.25963e-24
4.99373e-23
2.46969e-21
2.67709e-19
2.45971e-17
5.79556e-16
4.41414e-15
1.67089e-46
7.63812e-49
9.78838e-49
8.64818e-46
5.60641e-43
5.06671e-40
6.9827e-38
3.15534e-36
4.53857e-35
2.77247e-34
9.1415e-34
2.41494e-33
2.37366e-32
1.13859e-30
9.14968e-29
5.48689e-27
2.54234e-25
9.7897e-24
4.19413e-22
3.82818e-20
4.42466e-18
1.31792e-16
1.07164e-15
2.36384e-48
2.01223e-50
1.58067e-50
5.80332e-48
3.21393e-45
3.41502e-42
4.69492e-40
2.10489e-38
3.03735e-37
1.76383e-36
6.21131e-36
4.81467e-35
2.84414e-33
1.79103e-31
1.4398e-29
8.68902e-28
4.1991e-26
1.60915e-24
6.23942e-23
4.27739e-21
5.99433e-19
2.4734e-17
2.21972e-16
3.26287e-50
4.18067e-52
2.85225e-52
4.0404e-50
1.92496e-47
2.40288e-44
3.3035e-42
1.46821e-40
2.11175e-39
1.30465e-38
1.09203e-37
3.38524e-36
3.53056e-34
2.51016e-32
1.8233e-30
1.09115e-28
5.64843e-27
2.26158e-25
8.78523e-24
4.4979e-22
6.42023e-20
3.75702e-18
3.97383e-17
4.35487e-52
7.63875e-54
2.11492e-54
2.898e-52
1.26581e-49
1.76717e-46
2.42909e-44
1.06147e-42
1.49447e-41
1.20447e-40
3.60461e-39
3.04097e-37
4.44628e-35
2.91775e-33
1.83317e-31
1.16185e-29
6.55691e-28
2.88693e-26
1.24227e-24
5.41324e-23
6.45998e-21
4.86796e-19
6.18954e-18
5.56642e-54
1.2415e-55
1.62412e-56
2.15244e-54
8.9281e-52
1.34928e-48
1.84703e-46
7.94092e-45
1.20582e-43
1.57537e-42
1.64037e-40
3.04008e-38
4.6044e-36
2.55511e-34
1.63866e-32
1.21095e-30
7.19528e-29
3.61087e-27
1.77911e-25
7.49818e-24
7.2467e-22
5.9342e-20
8.53813e-19
6.75424e-56
1.79503e-57
1.28773e-58
1.65543e-56
6.97772e-54
1.07123e-50
1.44083e-48
5.99433e-47
1.3877e-45
7.32476e-44
1.49256e-41
2.13801e-39
2.65669e-37
1.65494e-35
1.48099e-33
1.27758e-31
7.62569e-30
4.36237e-28
2.3792e-26
1.02514e-24
8.66662e-23
6.87904e-21
1.05407e-19
7.72854e-58
2.31219e-59
1.04936e-60
1.31423e-58
5.68492e-56
8.52146e-53
1.1764e-50
4.90165e-49
1.42664e-47
3.83947e-45
9.36793e-43
7.63093e-41
6.76142e-39
8.22252e-37
1.13375e-34
1.07973e-32
6.71781e-31
4.29082e-29
2.53633e-27
1.16255e-25
9.03487e-24
6.834e-22
1.13394e-20
8.30882e-60
2.68219e-61
8.73167e-63
1.07209e-60
4.71443e-58
6.92327e-55
9.49127e-53
4.26771e-51
1.89701e-49
6.90547e-47
1.61548e-44
1.0467e-42
1.47167e-40
3.03588e-38
4.75915e-36
4.9889e-34
3.74695e-32
2.72839e-30
1.83343e-28
9.67012e-27
6.98079e-25
5.23703e-23
1.01487e-21
8.3929e-62
2.75842e-63
7.36036e-65
8.92778e-63
3.96028e-60
5.75693e-57
7.75533e-55
5.02672e-53
4.05558e-51
4.75884e-49
9.33435e-47
1.64893e-44
5.27815e-42
6.96416e-40
8.18144e-38
9.2919e-36
1.04249e-33
9.84598e-32
8.23338e-30
5.53422e-28
3.81411e-26
3.03343e-24
7.23619e-23
8.0072e-64
2.43925e-65
6.24146e-67
7.52947e-65
3.34343e-62
4.93209e-59
6.45266e-57
4.32261e-55
3.72891e-53
3.7657e-51
7.71542e-49
2.76127e-46
8.73499e-44
9.16403e-42
1.19452e-39
1.14579e-37
1.5071e-35
2.20235e-33
2.3255e-31
1.98647e-29
1.45258e-27
1.34837e-25
3.90275e-24
7.29513e-66
1.90173e-67
5.40867e-69
6.38783e-67
3.34538e-64
4.33598e-61
5.36432e-59
2.70334e-57
1.48168e-55
2.1019e-53
5.52927e-51
2.34006e-48
5.79079e-46
7.73028e-44
1.30521e-41
1.31661e-39
1.74314e-37
2.87749e-35
3.52683e-33
3.46596e-31
3.32817e-29
4.20246e-27
1.43417e-25
6.44618e-68
1.07939e-69
2.20641e-70
5.39798e-69
5.48208e-66
3.9435e-63
4.50019e-61
2.00183e-59
6.88715e-58
9.41523e-56
3.03347e-53
1.20606e-50
3.12281e-48
5.43961e-46
9.66094e-44
1.20534e-41
1.75661e-39
2.63579e-37
3.25911e-35
3.34207e-33
4.1159e-31
6.13121e-29
2.65392e-27
2.84255e-70
2.09557e-70
2.09557e-70
2.20641e-70
1.98808e-68
1.55402e-65
1.87166e-63
1.18967e-61
4.65996e-60
1.30275e-58
3.13587e-56
1.93306e-53
8.14645e-51
1.62024e-48
3.02497e-46
4.45096e-44
7.88892e-42
1.22162e-39
1.55037e-37
1.66426e-35
2.154e-33
2.94996e-31
1.49985e-29
0.999987
0.999994
0.99997
0.999694
0.999999
0.999996
0.999991
0.999984
0.999991
0.999991
0.999947
0.9999
0.939269
0.947625
0.964705
0.98675
0.230789
0.282469
0.362482
0.475012
9.62141e-06
9.05302e-06
8.84392e-06
9.90689e-06
9.19783e-06
8.80761e-06
8.83792e-06
8.80668e-06
0.000393544
0.000252629
3.03154e-05
9.28273e-06
0.000421355
0.000421352
0.000421327
0.000200372
0.00042129
0.000421371
0.000421352
0.000167709
0.000421041
0.00042124
0.000374961
0.000373094
6.31675e-05
0.00010778
5.88046e-11
2.22359e-05
2.67483e-12
5.89452e-12
1.25255e-11
5.83673e-11
2.31773e-10
2.31855e-10
2.00238e-10
1.90254e-10
8.36152e-10
9.55266e-10
9.57224e-10
9.57213e-10
1.18839e-10
1.98834e-10
3.01196e-10
3.9996e-10
7.55615e-11
1.02215e-10
1.38502e-10
2.08825e-10
3.61087e-11
4.80171e-11
5.60288e-11
6.90124e-11
1.70507e-11
2.93147e-11
3.95378e-11
5.01805e-11
9.45224e-12
2.55988e-11
4.51832e-11
6.22218e-11
5.92207e-12
2.13713e-11
4.50967e-11
6.71217e-11
3.37746e-12
1.64459e-11
4.49501e-11
7.55231e-11
1.63624e-12
1.01101e-11
4.51226e-11
1.02556e-10
8.78301e-13
4.53701e-12
3.22372e-11
1.04297e-10
4.92808e-13
1.6969e-12
1.62587e-11
8.06207e-11
2.44826e-13
6.03499e-13
5.74661e-12
4.82369e-11
1.0789e-13
2.18086e-13
1.18972e-12
1.86159e-11
4.54945e-14
1.07968e-13
3.00704e-13
4.74654e-12
1.52626e-14
5.54184e-14
2.10366e-13
3.58066e-12
3.67464e-15
2.09136e-14
1.26811e-13
1.94219e-12
6.72446e-16
4.39608e-15
4.20619e-14
3.62486e-13
1.09751e-16
4.71004e-16
5.56737e-15
5.92179e-14
1.69917e-17
4.48023e-17
3.48562e-16
5.43971e-15
2.44215e-18
6.11289e-18
3.34089e-17
4.62946e-16
3.22608e-19
1.02464e-18
6.29764e-18
6.2849e-17
3.90636e-20
1.78077e-19
1.42068e-18
1.24795e-17
4.21378e-21
2.89043e-20
2.99358e-19
2.9227e-18
3.75169e-22
3.9461e-21
5.10082e-20
5.86885e-19
2.41941e-23
4.04573e-22
6.34645e-21
8.19279e-20
9.44335e-25
2.65262e-23
5.13145e-22
7.33684e-21
2.22267e-26
8.22394e-25
2.12125e-23
3.63041e-22
1.83277e-28
6.73128e-27
2.29341e-25
4.96842e-24
0.999665
0.999801
0.99997
0.863954
0.277832
0.0119038
0.00137508
2.87207e-06
2.83089e-06
3.26074e-06
1.69212e-05
9.36224e-05
0.00031758
0.000496119
2.51216e-05
1.61952e-05
1.61877e-05
0.00852471
0.828438
0.999972
0.99997
0.999969
0.68798
0.0965909
0.0161423
0.00156693
2.87252e-06
2.8715e-06
3.20347e-06
6.32681e-05
0.000809578
0.00182824
0.00201709
0.000478704
2.44702e-05
1.62148e-05
2.66108e-05
0.85859
0.999929
0.999967
0.999969
0.531344
0.00242876
0.0229328
0.00746778
2.87477e-06
3.09791e-06
4.73634e-06
6.99369e-06
7.57197e-05
0.00200319
0.00201709
0.00195374
0.000136664
3.15393e-05
0.0554425
0.896059
0.997813
0.999527
0.999967
0.508317
0.00242876
0.0106655
0.0119133
0.0048887
0.000794296
5.4201e-05
1.48198e-05
4.55579e-05
0.0012355
0.00201709
0.00197042
0.000450474
7.95096e-05
0.257009
0.926027
0.68418
0.954433
0.999925
0.702267
0.00241496
0.00316227
0.00612344
0.00533483
0.00326925
0.0018945
0.000936885
0.00157978
0.0020516
0.0019854
0.00138257
0.000646704
0.000269241
0.446949
0.936445
0.0800367
0.389628
0.950852
0.848762
0.0643612
0.00448309
0.00104097
0.000945152
0.000892681
0.000974463
0.00201988
0.0020516
0.00204522
0.000883671
0.00162635
0.00143125
0.000997754
0.621188
0.939555
9.2945e-06
6.7934e-05
0.318981
0.915468
0.915621
0.50082
0.000946473
0.000899045
0.000877956
0.000863523
0.000877372
0.00141328
0.000623777
0.000619672
0.00333896
0.0291541
0.117636
0.826994
0.940399
1.32543e-05
1.35754e-05
3.2338e-05
0.212382
0.906227
0.905794
0.611125
0.242618
0.000926762
0.000783463
0.000667028
0.000623274
0.000620554
0.000621615
0.000621615
0.33077
0.812295
0.940399
0.940399
1.49351e-05
2.0621e-05
2.09947e-05
3.64906e-05
0.0973861
0.63032
0.73489
0.73489
0.559173
0.214104
0.00080368
0.000667416
0.000623274
0.000619682
0.218417
0.860773
0.937962
0.940152
0.940399
7.43929e-05
8.63996e-05
0.000122034
0.000116444
0.000109817
0.0285746
0.286845
0.620217
0.655332
0.655332
0.368786
0.205913
0.364443
0.68457
0.821391
0.825285
0.726275
0.746992
0.917282
0.000278068
0.000217921
0.00037288
0.000366158
0.000106476
5.08041e-05
6.11098e-05
0.0507355
0.262393
0.44588
0.611052
0.719203
0.733647
0.728602
0.550736
0.209743
0.203645
0.274785
0.870628
0.000225886
0.000347218
0.000332765
3.41054e-05
1.07022e-05
2.71561e-05
0.00339231
0.0220163
0.026815
0.0845066
0.291154
0.566056
0.744901
0.600036
0.326228
0.221827
0.203645
0.356063
0.915585
2.00017e-10
2.18522e-07
1.22579e-06
1.24199e-07
1.18342e-06
0.000123372
0.000812351
0.000913204
0.00278334
0.0366966
0.437279
0.711147
0.748521
0.811787
0.833737
0.835839
0.608801
0.778713
0.940471
1.96734e-10
4.17461e-10
1.4037e-09
1.29671e-08
2.10998e-07
9.71571e-06
3.83974e-05
0.000761429
0.0046255
0.0048222
0.00125844
0.000843779
0.0232391
0.384974
0.81558
0.940019
0.940173
0.94046
0.940461
8.58166e-10
6.22474e-10
5.86894e-10
1.38931e-09
1.39442e-08
1.92652e-07
2.12116e-06
9.90129e-05
0.00126078
0.00226735
0.00157607
0.000804739
0.000834571
0.0012333
0.134239
0.861116
0.940242
0.940357
0.912147
4.99682e-10
5.52409e-10
5.54202e-10
5.87123e-10
1.26534e-09
1.29376e-08
1.55705e-07
1.19915e-06
5.85948e-05
0.000663268
0.000881373
0.000802228
0.00080841
0.000855366
0.00129814
0.308413
0.882241
0.938136
0.738687
4.27525e-10
7.51351e-10
9.2792e-10
9.487e-10
9.90075e-10
1.61085e-09
9.51562e-09
7.74697e-08
1.57294e-06
3.39032e-05
4.87796e-06
0.000766622
0.00192201
0.00156311
0.0104267
0.0254891
0.421337
0.908131
0.738907
3.9959e-10
1.28495e-09
2.06596e-09
1.9207e-09
1.53797e-09
1.43517e-09
1.62239e-09
4.59563e-09
1.83003e-07
1.07785e-07
1.34978e-06
0.000212148
0.00111644
0.00122406
0.00378643
0.00630756
0.176412
0.750124
0.820843
1.59102e-10
5.70629e-10
2.36359e-09
6.65291e-09
6.71167e-09
1.43518e-09
1.42464e-09
1.62239e-09
4.71046e-09
3.09612e-08
9.12612e-07
2.95557e-05
0.000809639
0.0170419
0.0302341
0.0291216
0.122392
0.622823
0.830641
9.10345e-11
1.52576e-10
5.62884e-10
2.10432e-09
6.12403e-09
2.5979e-07
5.76069e-07
1.96231e-08
6.56219e-09
1.5646e-08
7.23789e-07
5.36683e-06
0.00012924
0.0668077
0.247539
0.248476
0.127334
0.225862
0.587268
9.16956e-11
1.1221e-10
1.20304e-10
1.61444e-10
3.67761e-09
6.75128e-07
1.12651e-06
9.76505e-07
7.30413e-09
1.71015e-08
4.26596e-07
5.11599e-06
0.000189938
0.0787727
0.290056
0.290056
0.267572
0.0883072
0.0894501
1.0685e-10
1.29712e-10
1.35726e-10
1.36352e-10
1.22429e-09
1.27903e-07
6.93446e-07
1.13506e-06
2.40936e-07
8.42169e-08
6.52402e-07
1.86645e-05
6.73556e-05
0.00614896
0.116654
0.288502
0.288023
0.248137
0.0891079
1.63605e-10
1.97515e-10
1.80388e-10
1.71925e-10
1.15591e-08
4.61079e-08
9.99572e-08
1.14121e-06
1.75292e-06
9.05086e-08
3.48438e-07
3.20565e-05
0.000178246
2.23957e-05
2.68736e-05
0.03577
0.237948
0.317561
0.321277
2.22958e-10
3.03096e-10
2.95233e-10
2.77939e-10
3.15825e-09
6.27444e-07
1.47775e-06
1.84788e-06
1.84801e-06
9.07764e-08
2.83113e-07
2.79995e-05
0.000181022
2.07112e-05
1.68963e-05
2.1905e-05
0.000200007
0.206138
0.321277
2.29553e-10
3.75485e-10
3.97139e-10
3.52686e-10
9.75148e-10
7.12123e-07
1.84788e-06
1.84821e-06
1.84832e-06
6.87329e-07
3.56245e-07
2.32804e-05
0.000128364
2.01965e-05
1.5965e-05
1.5096e-05
2.1905e-05
0.00559249
0.321277
2.20176e-10
4.41852e-10
5.05284e-10
4.72526e-10
7.85731e-10
8.27416e-08
6.89078e-07
1.84832e-06
1.84832e-06
1.8321e-06
4.45508e-07
1.71684e-05
4.65156e-05
0.000122534
1.92655e-05
1.50945e-05
1.5107e-05
0.0149615
0.320756
1.79288e-10
4.54166e-10
6.29559e-10
7.40594e-10
2.17087e-09
4.36606e-09
4.93714e-09
1.1074e-06
1.84733e-06
1.84245e-06
1.28623e-06
5.89831e-06
1.81815e-05
0.000158058
8.519e-05
1.50436e-05
1.53347e-05
0.0116272
0.17224
1.21945e-10
3.85389e-10
5.35825e-10
5.41449e-10
2.91618e-08
1.73465e-07
1.71995e-07
2.37836e-07
1.60778e-06
1.30047e-06
9.53149e-07
2.43933e-07
1.47534e-06
0.00015811
0.000104171
1.51949e-05
1.68618e-05
0.0419499
0.0402019
1.02731e-10
3.29358e-10
4.59817e-10
4.60285e-10
1.92687e-08
1.52542e-07
2.62928e-07
4.35565e-07
5.89871e-07
3.82644e-07
2.63034e-07
1.98742e-07
4.83648e-06
0.000157439
4.05678e-05
1.52292e-05
0.00243763
0.0535979
0.0998041
7.88918e-11
2.71163e-10
4.35383e-10
8.01097e-10
6.55907e-09
1.32342e-08
1.77742e-07
4.36015e-07
2.18457e-07
2.14551e-08
1.64621e-07
1.78537e-07
6.2929e-05
0.000150479
8.11328e-06
1.02819e-05
0.00611623
0.00668274
0.160316
3.65579e-11
1.62611e-10
3.16844e-10
4.62299e-10
3.34694e-09
2.06909e-08
8.23943e-08
1.34044e-07
1.60156e-08
1.64636e-08
3.20679e-07
3.19656e-07
9.35136e-05
4.45544e-05
6.46168e-06
0.00108034
0.0070205
0.00265767
0.160316
7.39341e-12
4.59924e-11
1.17999e-10
6.91891e-10
7.71778e-09
1.46456e-08
1.67586e-08
1.60153e-08
1.61224e-08
1.60123e-08
2.65112e-07
2.79278e-08
5.27293e-05
1.09408e-05
6.08972e-06
0.00422
0.00704972
0.00256919
0.160316
9.85747e-13
1.00485e-11
2.82104e-11
5.70808e-10
5.55418e-09
6.38979e-09
3.01455e-07
1.25902e-06
6.65499e-07
1.62019e-08
1.86606e-08
2.2409e-08
6.22797e-06
6.39613e-06
5.79846e-06
0.00502124
0.00706038
0.00195799
0.155988
1.1079e-13
2.75536e-12
1.50724e-11
2.12131e-10
2.20392e-09
1.30617e-09
1.76327e-07
1.8918e-06
1.90283e-06
1.19973e-06
6.422e-07
3.71411e-05
5.72318e-05
1.39998e-05
4.04295e-06
0.00394288
0.00697682
0.00188341
0.112691
1.02617e-14
5.57897e-13
9.78486e-12
5.46491e-11
2.90642e-10
7.61114e-13
5.79068e-08
6.70208e-07
1.90185e-06
2.42598e-08
3.67884e-05
6.85548e-05
5.75929e-05
3.88528e-07
1.312e-06
0.00515646
0.0024395
0.00187726
0.112597
1.46223e-15
8.74798e-14
4.68276e-12
2.02014e-11
1.57561e-11
5.72949e-13
2.23208e-08
5.54941e-08
4.42052e-07
9.61258e-09
1.60059e-05
3.2788e-05
8.82426e-06
1.00109e-10
0.000315518
0.00541617
0.00189922
0.00188335
0.104989
2.82021e-16
1.61369e-14
1.09159e-12
3.87252e-12
3.84931e-12
5.65469e-13
8.07539e-10
1.98613e-09
2.1851e-09
9.53466e-09
1.56995e-09
3.04646e-08
5.73373e-13
2.09729e-14
0.000798843
0.0054897
0.00310124
0.00187725
0.10223
4.41104e-17
1.92625e-15
7.51237e-14
1.7481e-13
1.46984e-12
5.64753e-13
9.21374e-11
2.36762e-10
2.20029e-10
2.26917e-09
1.44266e-10
6.79506e-14
1.76304e-15
5.3089e-17
0.00162651
0.00560002
0.00504013
0.00188786
0.125686
4.47028e-18
9.48984e-17
1.2435e-15
2.95599e-15
2.71821e-13
8.47525e-14
5.17869e-11
1.14798e-10
1.10703e-10
8.90414e-11
5.96852e-12
6.59307e-19
1.17022e-20
2.49562e-22
0.00053281
0.00566567
0.00566567
0.00229736
0.136697
2.69008e-19
3.15732e-18
2.10446e-17
3.65054e-16
1.04169e-14
9.26838e-16
4.27048e-12
3.13972e-12
1.17561e-12
4.96376e-20
6.30249e-21
2.56129e-22
3.84594e-26
1.01601e-31
-3.29817e-22
0.00358409
0.00569453
0.00416202
0.136716
8.0155e-21
8.34978e-20
9.83615e-19
3.28162e-17
5.91268e-17
2.05647e-18
1.67039e-14
1.15491e-15
1.28869e-21
3.63646e-24
2.13838e-26
3.58643e-28
5.30338e-30
2.52266e-34
4.21522e-46
2.11007e-39
0.00358029
0.0033225
0.136709
6.65903e-23
6.98201e-22
1.23531e-20
5.79484e-19
6.70465e-19
7.20996e-19
3.73493e-18
6.85334e-19
1.49311e-21
1.97717e-29
6.59096e-32
2.43279e-34
9.47852e-37
-5.02315e-50
3.44001e-105
4.28677e-91
0.00018984
0.000231678
0.107816
)
;

boundaryField
{
    leftWall
    {
        type            zeroGradient;
    }
    rightWall
    {
        type            zeroGradient;
    }
    lowerWall
    {
        type            zeroGradient;
    }
    atmosphere
    {
        type            inletOutlet;
        inletValue      uniform 0;
        value           nonuniform List<scalar> 
46
(
2.84255e-70
2.09557e-70
2.09557e-70
2.20641e-70
1.98808e-68
1.55402e-65
1.87166e-63
1.18967e-61
4.65996e-60
1.30275e-58
3.13587e-56
1.93306e-53
8.14645e-51
1.62024e-48
3.02497e-46
4.45096e-44
7.88892e-42
1.22162e-39
1.55037e-37
1.66426e-35
2.154e-33
2.94996e-31
1.49985e-29
1.83277e-28
6.73128e-27
2.29341e-25
4.96842e-24
6.65903e-23
6.98201e-22
1.23531e-20
5.79484e-19
6.70465e-19
7.20996e-19
3.73493e-18
0
0
0
0
0
0
0
0
0
0
0
0.107816
)
;
    }
    defaultFaces
    {
        type            empty;
    }
}


// ************************************************************************* //
