/*--------------------------------*- C++ -*----------------------------------*\
  =========                 |
  \\      /  F ield         | OpenFOAM: The Open Source CFD Toolbox
   \\    /   O peration     | Website:  https://openfoam.org
    \\  /    A nd           | Version:  13
     \\/     M anipulation  |
\*---------------------------------------------------------------------------*/
FoamFile
{
    format      ascii;
    class       volScalarField;
    location    "0.55";
    object      p;
}
// * * * * * * * * * * * * * * * * * * * * * * * * * * * * * * * * * * * * * //

dimensions      [1 -1 -2 0 0 0 0];

internalField   nonuniform List<scalar> 
2268
(
580.764
577.389
578.047
582.813
592.802
605.461
617.648
628.337
639.086
651.758
667.156
685.157
705.306
727.208
750.444
774.412
798.046
819.185
835.567
846.043
837.646
841.317
879.842
521.822
517.685
517.954
522.485
532.398
545.332
557.79
568.629
579.458
592.211
607.612
625.535
645.645
667.526
690.7
714.628
738.49
760.569
778.144
792.507
780.053
771.055
815.634
462.363
457.491
457.071
460.787
470.556
483.961
496.97
508.114
519.096
532.018
547.615
565.73
585.96
607.884
630.961
654.569
677.832
699.847
718.26
732.977
724.094
707.805
754.668
403.101
397.167
395.414
397.787
407.337
421.336
435.26
446.902
458.114
471.267
487.113
505.442
525.843
547.916
571.095
594.681
617.785
639.573
658.022
672.219
670.156
658.821
703.733
344.735
337.095
333.292
333.942
342.709
357.656
372.83
385.107
396.6
410.047
426.189
444.764
465.394
487.726
511.161
534.947
558.26
580.207
599.061
614.007
620.176
622.07
659.676
287.609
278.371
271.311
270.026
278.261
294.071
310.172
322.874
334.595
348.358
364.884
383.711
404.592
427.298
451.153
475.313
499.05
521.499
541.218
557.595
569.5
579.164
614.759
232.037
221.262
209.966
206.913
215.441
231.595
247.489
260.08
272.042
286.158
303.104
322.365
343.633
366.808
391.176
415.802
440.088
463.224
483.91
501.626
516.473
529.987
557.972
177.8
166.461
147.476
141.015
151.018
168.159
183.547
195.737
208.382
223.342
240.7
260.309
281.844
305.719
330.999
356.349
381.492
405.541
427.147
445.937
461.866
477.829
494.811
953.478
985.922
955.773
738.151
672.961
655.709
599.093
365.806
245.076
229.367
232.967
237.839
249.943
271.161
287.58
353.417
687.355
1202.82
1171.43
907.734
968.732
918.507
685.506
670.316
622.817
386.104
238.886
219.634
215.202
212.815
213.073
217.257
224.969
235.014
267.188
517.872
1057.31
1108.58
813.621
885.818
795.169
630.92
670.09
544.431
248.06
223.447
218.176
215.332
212.961
211.749
213.003
216.86
221.168
232.088
316.027
755.064
1023.78
680.265
693.588
678.867
597.417
666.798
376.623
228.217
221.407
217.786
215.014
212.523
211.416
212.77
216.448
220.512
226.756
263.334
455.921
922.441
498.441
534.101
589.027
556.605
659.723
258.442
220.991
220.74
217.46
214.605
211.94
210.748
212.154
215.97
220.29
225.168
241.12
306.681
811.643
409.488
424.253
509.782
455.157
628.768
209.965
217.9
219.865
216.845
213.928
211.094
209.713
211.089
215.229
220.12
224.498
231.186
252.031
688.259
292.028
350.471
443.391
361.271
495.554
210.827
217.589
218.675
215.949
212.884
209.756
207.983
209.219
213.88
219.638
223.98
227.29
235.37
547.232
155.844
307.27
398.284
302.196
374.766
216.307
217.694
217.333
214.784
211.486
207.94
205.575
206.442
211.592
218.311
223.073
226.181
228.154
408.436
96.4708
85.6302
59.9288
50.9161
62.0692
78.2879
89.2325
97.2438
108.462
124.284
143.219
163.622
185.789
211.079
237.48
263.591
289.877
315.51
338.664
359.053
373.658
378.97
347.689
24.2
15.0535
8.1439
7.63857
11.1853
16.0998
18.5428
20.2609
23.6393
29.2624
37.1495
47.8233
62.2146
82.5152
108.827
137.092
167.05
195.686
220.735
244.764
267.363
286.074
305.767
5.73272
5.68864
5.71099
5.70986
5.72205
5.71816
5.71159
5.70981
5.71634
5.7453
5.8243
6.17273
9.052
14.9664
24.9838
40.1172
59.4573
80.9735
104.547
131.405
152.465
166.506
176.777
5.6146
5.59264
5.59045
5.54623
5.51165
5.52536
5.51302
5.50953
5.5211
5.54355
5.54175
5.50778
5.43806
5.39989
5.56671
6.48667
8.95718
15.984
28.0917
45.1826
62.3451
72.818
82.871
5.47518
5.46472
5.4459
5.42199
5.42584
5.40975
5.39258
5.38204
5.3718
5.35934
5.33695
5.30549
5.26604
5.26423
5.32018
5.39982
5.47371
5.51097
5.60314
5.81482
7.66033
12.0439
16.3942
5.30012
5.29489
5.29239
5.2745
5.2649
5.25917
5.25186
5.24471
5.24092
5.23966
5.23117
5.20946
5.1789
5.16457
5.17346
5.21597
5.26761
5.28958
5.32671
5.31835
5.28951
5.37882
5.46703
5.14941
5.14612
5.14225
5.12913
5.12168
5.11418
5.10606
5.09758
5.08842
5.07618
5.06878
5.06082
5.05385
5.06347
5.07818
5.10335
5.13691
5.15992
5.17789
5.15849
5.14688
5.1951
5.22601
4.99275
4.99003
4.98401
4.97968
4.97476
4.96925
4.96357
4.95845
4.95487
4.9539
4.94668
4.93901
4.93294
4.94061
4.94971
4.96567
4.98798
5.00487
5.01744
5.01652
5.0227
5.04673
5.07624
4.84069
4.83935
4.83715
4.83235
4.82817
4.82377
4.81921
4.81456
4.81001
4.80277
4.80183
4.80162
4.80276
4.81022
4.81936
4.83106
4.84546
4.8576
4.86632
4.86905
4.87462
4.87534
4.86914
4.6904
4.6897
4.68813
4.68495
4.68178
4.6784
4.67497
4.67161
4.66846
4.66551
4.66415
4.66456
4.6662
4.67316
4.68084
4.69106
4.70213
4.7123
4.71999
4.72446
4.72711
4.71753
4.69141
4.54147
4.54112
4.54005
4.53787
4.53553
4.53305
4.53057
4.52828
4.52611
4.52441
4.52452
4.5258
4.52853
4.5341
4.54107
4.54939
4.55832
4.56689
4.57418
4.57948
4.58104
4.57196
4.54548
4.39357
4.39337
4.3926
4.39111
4.38943
4.38765
4.38593
4.38444
4.38339
4.38325
4.38339
4.38497
4.38797
4.39274
4.3988
4.40587
4.41355
4.42129
4.42854
4.43458
4.43693
4.43088
4.41129
4.24637
4.24623
4.24563
4.24462
4.24344
4.24219
4.24101
4.24009
4.23959
4.23972
4.24048
4.24225
4.24515
4.24929
4.2545
4.26057
4.26725
4.27422
4.28123
4.28773
4.29207
4.29113
4.28081
4.09967
4.09954
4.09892
4.09836
4.09753
4.09664
4.09583
4.09526
4.09506
4.09537
4.09629
4.098
4.10059
4.10411
4.10849
4.11359
4.11927
4.12533
4.1316
4.13774
4.14301
4.14585
4.14438
3.95334
3.95329
3.95315
3.95238
3.95167
3.95099
3.9504
3.95001
3.94994
3.95028
3.95113
3.95259
3.95472
3.95755
3.96104
3.96511
3.96965
3.97452
3.97956
3.98451
3.98895
3.9922
3.99381
3.80716
3.80709
3.80684
3.80634
3.80578
3.80522
3.80474
3.80442
3.80434
3.80457
3.80519
3.80627
3.80784
3.80991
3.81244
3.81536
3.8186
3.82203
3.82549
3.82872
3.8313
3.83265
3.83249
3.6611
3.661
3.66074
3.66033
3.65986
3.65936
3.6589
3.65854
3.65835
3.65837
3.65867
3.65927
3.66019
3.66143
3.66293
3.66464
3.66647
3.66828
3.66991
3.67112
3.67157
3.67052
3.66803
3.51514
3.51502
3.51477
3.51439
3.51393
3.51342
3.51292
3.51245
3.51207
3.51182
3.51171
3.51177
3.51199
3.51235
3.51279
3.51324
3.51358
3.51367
3.5133
3.51218
3.50991
3.50646
3.50097
3.36928
3.36915
3.36889
3.3685
3.36802
3.36746
3.36685
3.36623
3.36561
3.36502
3.36447
3.36396
3.36345
3.36292
3.36228
3.36147
3.36033
3.35872
3.35641
3.35312
3.34851
3.34224
3.33371
3.22352
3.22339
3.22312
3.2227
3.22215
3.2215
3.22076
3.21994
3.21905
3.2181
3.21709
3.21598
3.21475
3.21334
3.21166
3.20961
3.20705
3.2038
3.19963
3.19426
3.18733
3.17844
3.16707
3.07789
3.07775
3.07746
3.07698
3.07637
3.0756
3.0747
3.07366
3.07249
3.07117
3.06969
3.06801
3.06608
3.06382
3.06115
3.05794
3.05405
3.04927
3.04337
3.03607
3.02701
3.01578
3.0019
2.93239
2.93225
2.93193
2.9314
2.93069
2.9298
2.92873
2.92747
2.92601
2.92434
2.9224
2.92017
2.91758
2.91454
2.91096
2.90669
2.90158
2.89543
2.88799
2.87898
2.86804
2.85479
2.83875
2.78705
2.78691
2.78656
2.78596
2.78516
2.78414
2.78291
2.78143
2.7797
2.77768
2.77533
2.77259
2.7694
2.76566
2.76126
2.75606
2.74988
2.74254
2.73377
2.72329
2.71078
2.69584
2.67803
2.64189
2.64174
2.64136
2.6407
2.63981
2.63868
2.63728
2.63561
2.63362
2.63129
2.62857
2.62539
2.62167
2.61732
2.61221
2.60621
2.59914
2.59079
2.58092
2.56926
2.55547
2.5392
2.52002
2.49692
2.49677
2.49637
2.49565
2.49468
2.49344
2.4919
2.49005
2.48784
2.48524
2.4822
2.47863
2.47447
2.46961
2.46393
2.45728
2.44948
2.44034
2.42962
2.41705
2.40231
2.38506
2.36491
2.35218
2.35202
2.3516
2.35083
2.3498
2.34846
2.34681
2.3448
2.34241
2.33959
2.33628
2.33241
2.3279
2.32264
2.31651
2.30936
2.30103
2.29131
2.27998
2.26678
2.25141
2.23355
2.21282
2.20767
2.2075
2.20709
2.20628
2.20519
2.20379
2.20203
2.19991
2.19738
2.19439
2.19088
2.18678
2.182
2.17645
2.17
2.16252
2.15383
2.14375
2.13206
2.11851
2.10282
2.0847
2.06379
2.06346
2.06322
2.06286
2.062
2.06089
2.05943
2.05761
2.0554
2.05277
2.04966
2.04601
2.04176
2.03682
2.03109
2.02446
2.01679
2.00792
1.99768
1.98586
1.97223
1.95653
1.9385
1.91779
1.91955
1.91922
1.91892
1.91802
1.9169
1.9154
1.91355
1.91129
1.9086
1.90543
1.90172
1.89739
1.89238
1.88658
1.87988
1.87217
1.86329
1.85308
1.84135
1.82789
1.81247
1.79484
1.77471
1.77594
1.77554
1.77529
1.77436
1.77324
1.77173
1.76987
1.7676
1.7649
1.76171
1.75799
1.75367
1.74867
1.7429
1.73626
1.72864
1.7199
1.7099
1.69846
1.68541
1.67052
1.65358
1.63436
1.63262
1.63218
1.63197
1.63101
1.62992
1.62842
1.62657
1.62433
1.62166
1.61851
1.61485
1.6106
1.60569
1.60005
1.59357
1.58617
1.57771
1.56806
1.55709
1.54463
1.5305
1.51452
1.49648
1.4896
1.48915
1.48896
1.48799
1.48693
1.48546
1.48366
1.48147
1.47888
1.47582
1.47227
1.46816
1.46342
1.45799
1.45178
1.44469
1.43664
1.42749
1.41714
1.40543
1.39224
1.37741
1.36079
1.34687
1.34642
1.34624
1.34527
1.34427
1.34284
1.34112
1.33902
1.33654
1.33363
1.33024
1.32633
1.32184
1.3167
1.31084
1.30417
1.29662
1.28809
1.27847
1.26766
1.25555
1.24202
1.22698
1.20441
1.204
1.20379
1.20284
1.20191
1.20055
1.19892
1.19695
1.19462
1.19189
1.18873
1.18508
1.18089
1.17612
1.17069
1.16453
1.15758
1.14976
1.14098
1.13117
1.12024
1.10812
1.09475
1.06219
1.06186
1.06155
1.06067
1.05982
1.05855
1.05706
1.05524
1.0531
1.0506
1.0477
1.04436
1.04054
1.03619
1.03126
1.02569
1.01941
1.01238
1.00453
0.995793
0.986123
0.975463
0.963812
0.920164
0.919916
0.919569
0.918762
0.918
0.916833
0.915498
0.913865
0.911944
0.909702
0.907109
0.904131
0.90073
0.896864
0.892489
0.887561
0.882029
0.875848
0.868972
0.861366
0.852994
0.843829
0.833901
0.778326
0.778145
0.777787
0.777073
0.776409
0.775371
0.774212
0.772788
0.771116
0.769167
0.766918
0.764338
0.761395
0.758057
0.754287
0.75005
0.745309
0.740026
0.734172
0.727725
0.720669
0.712996
0.704756
0.636621
0.636496
0.636158
0.635548
0.634993
0.634107
0.63314
0.631946
0.630547
0.62892
0.627045
0.624895
0.622446
0.61967
0.61654
0.613029
0.609112
0.604762
0.599957
0.594686
0.588946
0.582737
0.576129
0.494994
0.494922
0.494634
0.494138
0.493707
0.492989
0.492231
0.491282
0.490176
0.488892
0.487413
0.485718
0.483789
0.481603
0.47914
0.476383
0.473313
0.469914
0.466172
0.462081
0.45764
0.452865
0.447815
0.353452
0.353425
0.353209
0.352843
0.35254
0.352011
0.351464
0.350778
0.349979
0.349049
0.347979
0.346757
0.345365
0.34379
0.342017
0.340035
0.33783
0.33539
0.332712
0.329791
0.326634
0.323252
0.319693
0.212014
0.212016
0.211879
0.211654
0.211476
0.21115
0.210822
0.210406
0.209923
0.209361
0.208712
0.207972
0.207133
0.206183
0.205113
0.203918
0.202589
0.20112
0.199509
0.197754
0.195864
0.193844
0.191726
0.0706486
0.0706645
0.0706125
0.0705352
0.0704775
0.0703628
0.0702582
0.0701155
0.0699555
0.069768
0.0695503
0.0693014
0.0690207
0.0687041
0.0683469
0.0679465
0.0675023
0.0670121
0.0664747
0.0658902
0.0652606
0.0645887
0.0638855
250.493
262.743
293.226
289.641
307.868
306.225
303.088
301.639
180.552
184.056
190.612
199.571
92.4752
101.191
112.476
123.943
19.8654
23.3753
29.7366
39.7847
5.40876
5.32203
5.30147
5.77486
5.20822
5.16606
5.12715
5.12803
5.06377
5.0323
5.00831
5.02859
4.83755
4.8129
4.80218
4.84831
4.65651
4.63277
4.62099
4.65997
4.51468
4.49677
4.49543
4.52738
4.38392
4.37087
4.36944
4.38036
4.266
4.25778
4.25533
4.25829
4.14162
4.14039
4.13942
4.13772
3.99461
3.9953
3.99594
3.99389
3.83107
3.82954
3.82675
3.8248
3.66468
3.66183
3.65812
3.65338
3.49492
3.49021
3.48452
3.47779
3.32521
3.31884
3.31142
3.30286
3.15633
3.14853
3.13966
3.12965
2.98922
2.98016
2.97006
2.95881
2.82444
2.81435
2.80322
2.79098
2.6624
2.65146
2.63952
2.6265
2.50337
2.4918
2.47925
2.46565
2.34756
2.33556
2.32261
2.30865
2.19509
2.18287
2.16974
2.15562
2.046
2.03377
2.02068
2.00665
1.90026
1.88824
1.87541
1.86169
1.75775
1.74614
1.73378
1.72061
1.61824
1.60725
1.59556
1.58315
1.48146
1.47124
1.46042
1.44897
1.34706
1.33776
1.32796
1.31763
1.21467
1.20638
1.1977
1.18863
1.08392
1.07666
1.06909
1.0612
0.954472
0.948248
0.941802
0.935125
0.826029
0.820816
0.815454
0.809942
0.698294
0.69404
0.689699
0.685275
0.570998
0.567639
0.564235
0.560795
0.443933
0.441404
0.438855
0.436293
0.316978
0.315214
0.313445
0.311676
0.190116
0.189073
0.188032
0.186996
0.063353
0.0630088
0.0626665
0.0623271
243.785
298.465
346.75
260.594
275.86
212.033
216.758
214.979
212.506
208.876
204.758
201.434
201.248
206.864
215.306
221.197
225.077
222.997
265.992
286.908
283.492
294.477
226.728
212.714
201.984
211.102
211.413
209.391
205.86
201.554
197.321
194.878
199.841
211.998
219.595
223.568
220.634
226.836
213.613
228.323
243.938
202.264
194.392
196.711
208.789
210.06
208.053
204.966
201.115
198.01
195.697
198.776
211.069
220.032
223.241
219.59
226.632
140.937
166.861
203.902
213.317
192.638
211.896
219.666
211.98
209.475
206.51
203.243
201.146
200.554
203.365
213.214
222.336
225.999
229.41
252.628
60.041
85.5445
139.425
226.03
206.438
237.132
238.42
222.592
214.317
210.894
208.1
206.412
207.6
211.392
218.356
225.045
231.189
251.607
291.853
9.52017
23.6999
60.7642
220.963
225.998
255.557
244.779
233.552
223.497
218.774
217.322
217.898
219.874
222.63
226.085
228.97
234.204
265.975
337.509
5.01524
5.34766
13.6527
69.7595
162.092
235.01
244.619
237.652
227.886
224.076
224.306
226.371
228.848
230.441
232.035
236.24
230.491
278.824
417.271
5.08095
5.24375
5.07649
14.5617
66.2402
146.913
217.675
224.479
222.54
223.775
226.438
230.292
233.121
233.737
234.468
242.541
279.227
366.842
552.131
4.96008
5.0746
5.14866
5.14052
9.35997
41.2078
120.134
159.872
187.309
211.113
225.855
233.67
235.4
235.714
237.159
275.172
337.663
468.465
674.368
4.79607
4.9407
4.97255
5.1405
5.13232
6.51187
22.8584
50.5435
101.162
145.162
198.651
229.651
217.226
193.63
248.864
293.234
333.328
451.376
651.294
4.61387
4.68958
4.7667
4.7941
4.86743
4.89909
4.09331
1.7522
10.316
43.0887
157.996
312.287
415.433
384.46
294.089
267.489
288.749
361.027
472.823
4.41456
4.47581
4.54978
4.71107
4.86789
4.76382
4.52697
4.61871
-0.891861
7.55998
126.541
392.08
452.963
344.996
262.381
220.125
224.41
277.993
349.916
4.26995
4.30011
4.3388
4.42052
4.53001
4.52877
4.36519
3.46943
2.02993
5.87593
34.6281
57.4577
110.201
184.905
210.843
216.755
225.247
242.935
284.462
4.13706
4.15111
4.1743
4.20322
4.21909
4.12262
3.72743
2.76041
1.67396
3.34798
4.96081
6.22196
10.2532
38.004
120.649
210.622
239.811
242.155
245.748
3.99069
3.9859
3.98139
3.97437
3.94337
3.81165
3.39776
2.62135
2.1621
2.94791
4.46905
5.10306
5.40144
7.78144
24.6983
131.454
190.389
194.209
194.869
3.81941
3.80649
3.78611
3.75607
3.70312
3.58418
3.29063
2.78649
2.50623
2.86807
3.76384
4.38834
4.68614
5.63538
9.46152
28.9172
84.0012
116.804
138.007
3.64323
3.62199
3.59257
3.553
3.49598
3.40124
3.22906
2.97194
2.78481
3.03668
3.47149
3.90976
4.61282
5.56173
7.03922
9.19175
12.5774
42.9544
94.8732
3.46453
3.43785
3.40253
3.35862
3.30388
3.2297
3.12416
2.99907
2.91241
3.05333
3.35934
3.75315
4.48799
5.35908
6.4478
7.61235
6.76448
18.2683
77.511
3.28653
3.25589
3.21695
3.17071
3.11792
3.0561
2.98159
2.90809
2.86471
2.95045
3.14075
3.25422
3.44842
4.21661
6.15532
10.3899
16.3825
37.1087
75.9673
3.11088
3.07714
3.03559
2.98772
2.93547
2.87869
2.81551
2.75131
2.70318
2.72274
2.78529
2.76974
2.70121
2.69246
2.376
8.1144
30.6937
62.9303
110.177
2.93808
2.90192
2.85828
2.80873
2.75556
2.69896
2.63668
2.56826
2.49855
2.45364
2.41623
2.32951
2.26407
2.66258
6.05602
15.2531
35.1474
65.9478
84.289
2.76862
2.73051
2.68514
2.63377
2.57851
2.51936
2.45293
2.37509
2.2827
2.18079
2.03794
1.74908
1.3699
1.08719
4.9389
18.4502
31.7443
55.5049
73.4259
2.60287
2.56324
2.51645
2.46336
2.40552
2.34264
2.27048
2.18214
2.06722
1.91852
1.68746
1.23443
0.679368
0.32078
0.367056
2.90173
19.9586
47.375
53.9202
2.44111
2.40039
2.35259
2.29813
2.23793
2.17139
2.09364
1.99901
1.86875
1.6877
1.41186
0.928573
0.298266
0.071835
0.169637
0.363987
2.76409
20.3333
36.4894
2.28355
2.24224
2.19393
2.13869
2.07695
2.00808
1.92868
1.82656
1.69043
1.49957
1.21653
0.76479
0.191068
-0.0691572
0.0778245
0.350144
1.28252
3.90896
25.2753
2.13035
2.089
2.04078
1.98545
1.92316
1.85524
1.77152
1.66742
1.53244
1.34871
1.09071
0.706403
0.225949
-0.0701673
0.04079
0.30579
0.93248
0.701701
19.876
1.98158
1.94079
1.89334
1.83857
1.7752
1.71213
1.62452
1.51913
1.38853
1.22216
1.01069
0.724946
0.383824
0.142369
0.115492
0.338775
0.667688
0.226094
8.64589
1.83723
1.79767
1.75183
1.69912
1.63913
1.57364
1.48689
1.38209
1.25823
1.1141
0.957328
0.77499
0.558606
0.396882
0.331918
0.49979
0.5184
-0.298084
2.32226
1.69717
1.65948
1.61595
1.5657
1.50715
1.44817
1.36165
1.26093
1.14831
1.02899
0.922321
0.823108
0.693192
0.587027
0.530322
0.596889
0.685806
2.50263
1.6362
1.56112
1.52593
1.48561
1.43935
1.38734
1.32836
1.24812
1.15819
1.0636
0.973051
0.906458
0.863005
0.780626
0.691153
0.643339
0.638795
0.752975
1.95352
0.263718
1.42869
1.39654
1.36028
1.31912
1.27425
1.2202
1.14906
1.07442
1.0029
0.942829
0.906857
0.892968
0.839216
0.751348
0.702693
0.707145
1.12767
1.8439
2.95429
1.29942
1.2706
1.23894
1.20353
1.1651
1.12029
1.06487
1.00838
0.95925
0.925207
0.912204
0.911412
0.87774
0.797131
0.750265
0.75458
1.62411
2.63204
5.98765
1.17282
1.14723
1.1204
1.09098
1.05965
1.02617
0.988094
0.951384
0.921728
0.905308
0.905316
0.91127
0.892869
0.833185
0.787011
0.784302
1.95121
2.95861
6.56414
1.04749
1.0263
1.00391
0.980338
0.956191
0.932954
0.911788
0.894231
0.881924
0.874674
0.877392
0.880271
0.866441
0.837254
0.829247
0.904179
1.96988
2.50567
4.9814
0.923605
0.906243
0.888293
0.870155
0.852575
0.8372
0.826162
0.823726
0.827336
0.827423
0.826167
0.820909
0.815131
0.827914
0.882983
1.08839
2.10142
2.1455
3.47011
0.800507
0.786578
0.77264
0.759218
0.74712
0.737919
0.73329
0.736787
0.748785
0.758544
0.759422
0.759174
0.776634
0.813317
0.913472
1.13842
2.11388
2.15331
3.31793
0.677777
0.666848
0.656302
0.646839
0.63901
0.634574
0.634633
0.640794
0.653971
0.671062
0.687111
0.70336
0.725804
0.759324
0.874139
1.05972
1.89215
2.03543
3.42861
0.555007
0.54694
0.538863
0.532638
0.527951
0.526685
0.529616
0.53728
0.550923
0.57199
0.596169
0.615617
0.630258
0.651293
0.702457
0.832765
1.4316
1.56728
3.30652
0.432004
0.426135
0.420627
0.416613
0.414021
0.414441
0.41841
0.425969
0.438765
0.458304
0.479633
0.49673
0.502099
0.512433
0.498174
0.509998
0.874991
0.901421
3.30323
0.308728
0.304787
0.301234
0.298821
0.297542
0.298498
0.302141
0.308228
0.318109
0.332769
0.348527
0.35783
0.354273
0.350441
0.322144
0.225806
0.262452
0.226221
2.60183
0.185275
0.183019
0.181044
0.179782
0.179261
0.18011
0.182594
0.186544
0.192463
0.200824
0.207708
0.207134
0.195624
0.174757
0.136512
-0.0294383
-0.00957041
0.131153
1.27155
0.061765
0.0610356
0.0604102
0.060032
0.0599228
0.060306
0.0612694
0.0627194
0.0642691
0.0649185
0.061012
0.0482333
0.0246685
-0.011752
-0.0593584
-0.175783
-0.0176889
-0.0890499
0.113761
)
;

boundaryField
{
    leftWall
    {
        type            calculated;
        value           nonuniform List<scalar> 
50
(
580.764
521.822
462.363
403.101
344.735
287.609
232.037
177.8
96.4708
24.2
5.73272
5.6146
5.47518
5.30012
5.14941
4.99275
4.84069
4.6904
4.54147
4.39357
4.24637
4.09967
3.95334
3.80716
3.6611
3.51514
3.36928
3.22352
3.07789
2.93239
2.78705
2.64189
2.49692
2.35218
2.20767
2.06346
1.91955
1.77594
1.63262
1.4896
1.34687
1.20441
1.06219
0.920164
0.778326
0.636621
0.494994
0.353452
0.212014
0.0706486
)
;
    }
    rightWall
    {
        type            calculated;
        value           nonuniform List<scalar> 
50
(
1171.43
1108.58
1023.78
922.441
811.643
688.259
547.232
408.436
265.992
226.836
226.632
252.628
291.853
337.509
417.271
552.131
674.368
651.294
472.823
349.916
284.462
245.748
194.869
138.007
94.8732
77.511
75.9673
110.177
84.289
73.4259
53.9202
36.4894
25.2753
19.876
8.64589
2.32226
1.6362
0.263718
2.95429
5.98765
6.56414
4.9814
3.47011
3.31793
3.42861
3.30652
3.30323
2.60183
1.27155
0.113761
)
;
    }
    lowerWall
    {
        type            calculated;
        value           nonuniform List<scalar> 
62
(
610.193
606.818
607.476
612.242
622.231
634.89
647.077
657.766
668.516
681.187
696.586
714.586
734.735
756.638
779.874
803.841
827.476
848.615
864.389
872.707
865.106
870.708
909.232
879.842
815.634
754.668
703.733
659.676
614.759
557.972
494.811
313.09
325.34
355.821
352.219
953.478
907.734
813.621
680.265
498.441
409.488
292.028
155.844
960.937
991.89
960.951
743.299
674.512
656.877
607.652
374.488
253.36
240.229
248.605
255.06
267.928
290.278
308.182
375.127
709.337
1224.98
1191.01
)
;
    }
    atmosphere
    {
        type            calculated;
        value           nonuniform List<scalar> 
46
(
0
0
0
0
0
0
0
0
0
0
0
0
0
0
0
0
0
0
0
0
0
0
0
0
0
0
0
0
0
0
0
0
0
0
-2.82702e-05
-0.000974691
-0.00462606
-0.0147557
-0.0352897
-0.0674105
-0.113505
-0.183801
-0.316536
-0.0883962
-0.000566538
0
)
;
    }
    defaultFaces
    {
        type            empty;
    }
}


// ************************************************************************* //
