/*--------------------------------*- C++ -*----------------------------------*\
  =========                 |
  \\      /  F ield         | OpenFOAM: The Open Source CFD Toolbox
   \\    /   O peration     | Website:  https://openfoam.org
    \\  /    A nd           | Version:  13
     \\/     M anipulation  |
\*---------------------------------------------------------------------------*/
FoamFile
{
    format      ascii;
    class       volScalarField;
    location    "0.55";
    object      p_rgh;
}
// * * * * * * * * * * * * * * * * * * * * * * * * * * * * * * * * * * * * * //

dimensions      [1 -1 -2 0 0 0 0];

internalField   nonuniform List<scalar> 
2268
(
610.193
606.818
607.476
612.242
622.231
634.89
647.077
657.766
668.516
681.187
696.586
714.586
734.735
756.638
779.874
803.841
827.476
848.615
864.389
872.707
865.106
870.708
909.232
610.11
605.973
606.242
610.773
620.686
633.62
646.078
656.917
667.746
680.499
695.9
713.823
733.933
755.814
778.988
802.916
826.778
848.857
866.409
875.287
861.41
858.008
903.806
609.51
604.638
604.218
607.934
617.703
631.108
644.117
655.261
666.243
679.165
694.762
712.877
733.107
755.031
778.108
801.715
824.979
846.994
865.406
879.902
859.688
848.872
901.621
609.107
603.172
601.419
603.792
613.342
627.342
641.265
652.907
664.119
677.273
693.118
711.447
731.849
753.922
777.1
800.687
823.79
845.578
864.028
878.225
861.842
854.874
909.199
609.599
601.96
598.156
598.806
607.573
622.521
637.695
649.971
661.465
674.911
691.054
709.628
730.259
752.59
776.025
799.812
823.125
845.071
863.926
878.872
882.924
885.654
924.345
611.332
602.094
595.034
593.749
601.984
617.794
633.895
646.596
658.317
672.08
688.607
707.434
728.315
751.021
774.876
799.036
822.773
845.222
864.941
881.318
893.223
902.883
938.414
614.618
603.843
592.547
589.494
598.021
614.171
630.058
642.652
654.618
668.737
685.685
704.947
726.214
749.389
773.757
798.383
822.67
845.805
866.491
884.208
899.055
912.569
940.473
619.24
607.899
588.893
582.401
592.332
609.127
624.477
636.859
649.679
664.727
682.12
701.741
723.281
747.158
772.439
797.789
822.932
846.981
868.588
887.378
903.306
919.269
936.16
960.937
991.89
960.951
743.299
674.512
656.877
607.652
374.488
253.36
240.229
248.605
255.06
267.928
290.278
308.182
375.127
709.337
1224.98
1191.01
958.095
986.633
937.294
689.898
672.612
626.858
406.505
241.278
219.986
215.291
213.035
217.53
229.003
243.578
261.613
306.875
574.46
1125.34
1176.6
918.151
1003.73
931.72
645.42
673.858
555.369
260.572
223.603
218.324
215.48
213.11
211.899
213.16
217.041
221.444
232.772
330.714
833.575
1138.56
877.012
899.588
884.868
608.623
672.168
392.251
229.456
221.614
217.993
215.22
212.73
211.623
212.98
216.668
220.771
227.17
264.461
504.815
1083.98
763.299
798.959
853.885
690.912
667.24
276.947
221.429
221.005
217.726
214.871
212.205
211.014
212.421
216.24
220.572
225.503
241.788
341.582
1020.4
733.203
747.968
833.497
778.872
664.156
230.25
218.388
220.19
217.169
214.253
211.418
210.038
211.415
215.556
220.451
224.849
231.754
279.06
944.968
674.552
733.023
825.963
743.842
575.496
227.708
218.041
219.058
216.333
213.267
210.139
208.368
209.609
214.272
220.035
224.376
227.748
252.964
851.714
597.138
748.614
839.713
737.046
506.678
226.148
218.137
217.776
215.226
211.929
208.384
206.032
206.909
212.051
218.766
223.524
226.635
240.44
760.685
616.368
562.547
469.012
409.148
433.097
490.497
546.982
583.161
615.338
647.355
674.598
696.657
719.256
744.546
770.948
797.057
823.343
848.977
872.131
892.52
907.125
912.437
881.139
216.545
112.837
30.9064
27.2557
69.764
126.001
153.252
173.154
212.454
276.023
360.953
459.436
570.758
681.799
767.488
795.753
825.712
854.347
879.396
903.426
926.025
944.736
964.428
6.51657
6.4725
6.49486
6.49372
6.50591
6.50202
6.49545
6.49366
6.50019
6.52916
6.60816
14.6686
62.1306
138.433
266.325
433.472
643.916
844.742
888.403
915.259
936.321
950.36
960.627
6.52365
6.5017
6.49968
6.45528
6.4207
6.43441
6.42207
6.41858
6.43015
6.4526
6.4508
6.41684
6.34712
6.30896
6.47593
22.8615
59.9576
171.807
353.011
584.457
804.361
901.722
928.574
6.50942
6.49897
6.48015
6.45624
6.46009
6.444
6.42682
6.41628
6.40605
6.39362
6.37129
6.33975
6.30031
6.2985
6.35445
6.43421
6.50854
6.5464
6.64363
9.5603
51.488
125.048
199.249
6.45956
6.45433
6.45183
6.43394
6.42434
6.41861
6.4113
6.40415
6.40037
6.39952
6.39119
6.36935
6.33838
6.32406
6.35024
6.40926
6.45006
6.4608
6.49795
6.48972
6.46113
6.55028
6.63826
6.43404
6.43075
6.42688
6.41376
6.40631
6.39881
6.39069
6.38222
6.37309
6.36138
6.35406
6.3461
6.33874
6.34817
6.36289
6.42078
6.44981
6.45916
6.49585
6.48313
6.4516
6.52136
6.53952
6.40258
6.39985
6.39384
6.38951
6.38459
6.37908
6.3734
6.36828
6.3647
6.36389
6.35703
6.34898
6.3428
6.35064
6.36034
6.3755
6.39781
6.4147
6.42727
6.42651
6.43838
6.70652
7.00621
6.37571
6.37437
6.37217
6.36737
6.3632
6.3588
6.35423
6.34959
6.34503
6.33779
6.33685
6.33665
6.33778
6.34611
6.35606
6.36628
6.38048
6.39263
6.40135
6.40481
6.43876
6.65157
7.0502
6.35062
6.34992
6.34834
6.34517
6.34199
6.33862
6.33519
6.33183
6.32868
6.32573
6.32437
6.32478
6.32642
6.33372
6.34219
6.35141
6.36234
6.37252
6.38021
6.38676
6.40398
6.37799
6.63449
6.32688
6.32654
6.32546
6.32328
6.32095
6.31846
6.31599
6.31369
6.31152
6.30982
6.30993
6.31122
6.31396
6.31952
6.32648
6.3348
6.34373
6.3523
6.35959
6.36489
6.36645
6.35738
6.3549
6.30418
6.30398
6.30321
6.30172
6.30004
6.29826
6.29653
6.29505
6.294
6.29386
6.294
6.29558
6.29858
6.30335
6.30941
6.31648
6.32416
6.3319
6.33915
6.34519
6.34754
6.34148
6.32505
6.28217
6.28203
6.28143
6.28043
6.27925
6.27799
6.27682
6.27589
6.27539
6.27552
6.27629
6.27806
6.28096
6.28509
6.2903
6.29637
6.30305
6.31002
6.31703
6.32354
6.32787
6.32693
6.31661
6.26067
6.26054
6.25991
6.25936
6.25853
6.25764
6.25683
6.25625
6.25605
6.25636
6.25729
6.259
6.26159
6.26511
6.26948
6.27459
6.28027
6.28633
6.29259
6.29873
6.30401
6.30684
6.30537
6.23953
6.23948
6.23934
6.23857
6.23786
6.23718
6.23659
6.23621
6.23613
6.23647
6.23732
6.23878
6.24091
6.24374
6.24723
6.2513
6.25584
6.26071
6.26575
6.2707
6.27514
6.27839
6.28
6.21855
6.21847
6.21822
6.21772
6.21716
6.21661
6.21613
6.21581
6.21572
6.21595
6.21658
6.21766
6.21923
6.22129
6.22382
6.22675
6.22998
6.23341
6.23687
6.2401
6.24268
6.24403
6.24387
6.19768
6.19758
6.19732
6.19691
6.19644
6.19594
6.19548
6.19512
6.19493
6.19495
6.19525
6.19585
6.19677
6.19801
6.19951
6.20122
6.20305
6.20486
6.20649
6.2077
6.20815
6.2071
6.20461
6.17691
6.1768
6.17654
6.17616
6.1757
6.1752
6.17469
6.17423
6.17385
6.17359
6.17349
6.17355
6.17377
6.17412
6.17456
6.17501
6.17535
6.17544
6.17507
6.17395
6.17169
6.16823
6.16274
6.15625
6.15612
6.15586
6.15547
6.15499
6.15443
6.15382
6.15319
6.15258
6.15199
6.15144
6.15092
6.15042
6.14988
6.14925
6.14843
6.1473
6.14568
6.14338
6.14009
6.13548
6.12921
6.12068
6.13569
6.13556
6.13528
6.13486
6.13432
6.13367
6.13292
6.1321
6.13122
6.13027
6.12925
6.12815
6.12692
6.1255
6.12383
6.12178
6.11922
6.11596
6.11179
6.10642
6.09949
6.0906
6.07923
6.11525
6.11511
6.11482
6.11434
6.11372
6.11296
6.11206
6.11102
6.10985
6.10853
6.10705
6.10537
6.10343
6.10118
6.09851
6.0953
6.0914
6.08663
6.08073
6.07343
6.06437
6.05314
6.03925
6.09495
6.0948
6.09448
6.09395
6.09324
6.09235
6.09128
6.09002
6.08857
6.08689
6.08496
6.08272
6.08013
6.07709
6.07351
6.06924
6.06413
6.05798
6.05054
6.04153
6.0306
6.01735
6.00131
6.0748
6.07465
6.0743
6.0737
6.0729
6.07189
6.07065
6.06918
6.06745
6.06543
6.06308
6.06034
6.05715
6.05341
6.04901
6.04381
6.03763
6.03028
6.02151
6.01104
5.99852
5.98359
5.96578
6.05483
6.05468
6.0543
6.05364
6.05275
6.05162
6.05022
6.04855
6.04656
6.04423
6.04151
6.03833
6.03461
6.03026
6.02515
6.01915
6.01208
6.00373
5.99386
5.9822
5.96841
5.95214
5.93296
6.03506
6.03491
6.0345
6.03378
6.03282
6.03157
6.03004
6.02818
6.02598
6.02338
6.02033
6.01677
6.01261
6.00775
6.00206
5.99541
5.98762
5.97848
5.96776
5.95518
5.94044
5.9232
5.90304
6.01551
6.01535
6.01494
6.01416
6.01313
6.01179
6.01014
6.00813
6.00574
6.00292
5.99961
5.99574
5.99123
5.98597
5.97984
5.97269
5.96436
5.95464
5.94331
5.93011
5.91474
5.89688
5.87615
5.9962
5.99602
5.99562
5.9948
5.99372
5.99231
5.99056
5.98844
5.9859
5.98291
5.9794
5.9753
5.97053
5.96498
5.95853
5.95104
5.94235
5.93227
5.92058
5.90703
5.89135
5.87323
5.85231
5.97717
5.97694
5.97658
5.97572
5.97461
5.97314
5.97133
5.96912
5.96649
5.96338
5.95973
5.95548
5.95054
5.94481
5.93818
5.93051
5.92164
5.9114
5.89958
5.88595
5.87025
5.85222
5.83151
5.95846
5.95814
5.95783
5.95694
5.95581
5.95432
5.95246
5.95021
5.94752
5.94434
5.94063
5.93631
5.93129
5.92549
5.9188
5.91108
5.9022
5.89199
5.88027
5.86681
5.85139
5.83376
5.81362
5.94005
5.93965
5.9394
5.93847
5.93735
5.93584
5.93398
5.93171
5.92901
5.92582
5.9221
5.91778
5.91278
5.90701
5.90037
5.89275
5.88401
5.87401
5.86257
5.84951
5.83463
5.81769
5.79846
5.92192
5.92149
5.92127
5.92032
5.91922
5.91772
5.91587
5.91363
5.91096
5.90782
5.90415
5.8999
5.89499
5.88935
5.88288
5.87547
5.86701
5.85737
5.8464
5.83394
5.8198
5.80382
5.78578
5.9041
5.90364
5.90345
5.90248
5.90143
5.89996
5.89815
5.89597
5.89337
5.89032
5.88677
5.88266
5.87792
5.87249
5.86628
5.85919
5.85113
5.84199
5.83163
5.81993
5.80674
5.7919
5.77529
5.88656
5.88611
5.88593
5.88496
5.88396
5.88253
5.88081
5.87871
5.87623
5.87332
5.86993
5.86602
5.86153
5.85639
5.85053
5.84386
5.83631
5.82778
5.81816
5.80736
5.79524
5.78171
5.76667
5.86929
5.86888
5.86868
5.86773
5.86679
5.86543
5.86381
5.86184
5.85951
5.85678
5.85362
5.84997
5.84578
5.841
5.83557
5.82942
5.82247
5.81464
5.80587
5.79606
5.78513
5.77301
5.75963
5.85227
5.85194
5.85163
5.85075
5.8499
5.84863
5.84714
5.84532
5.84318
5.84068
5.83778
5.83444
5.83062
5.82627
5.82134
5.81577
5.8095
5.80246
5.79461
5.78587
5.7762
5.76554
5.75389
5.83544
5.83519
5.83484
5.83404
5.83328
5.83211
5.83077
5.82914
5.82722
5.82498
5.82238
5.81941
5.81601
5.81214
5.80776
5.80284
5.7973
5.79112
5.78425
5.77664
5.76827
5.7591
5.74918
5.8188
5.81862
5.81826
5.81754
5.81688
5.81584
5.81468
5.81326
5.81159
5.80964
5.80739
5.80481
5.80187
5.79853
5.79476
5.79052
5.78578
5.7805
5.77464
5.7682
5.76114
5.75347
5.74523
5.80229
5.80216
5.80182
5.80121
5.80066
5.79977
5.7988
5.79761
5.79621
5.79458
5.79271
5.79056
5.78811
5.78533
5.7822
5.77869
5.77478
5.77043
5.76562
5.76035
5.75461
5.7484
5.74179
5.78585
5.78578
5.78549
5.785
5.78457
5.78385
5.78309
5.78214
5.78103
5.77975
5.77827
5.77658
5.77465
5.77246
5.77
5.76724
5.76417
5.76077
5.75703
5.75294
5.7485
5.74372
5.73867
5.76951
5.76948
5.76926
5.7689
5.76859
5.76806
5.76752
5.76683
5.76603
5.7651
5.76403
5.76281
5.76142
5.75984
5.75807
5.75609
5.75388
5.75144
5.74877
5.74585
5.74269
5.73931
5.73575
5.75326
5.75326
5.75313
5.7529
5.75272
5.7524
5.75207
5.75165
5.75117
5.75061
5.74996
5.74922
5.74838
5.74743
5.74636
5.74517
5.74384
5.74237
5.74076
5.739
5.73711
5.73509
5.73297
5.73709
5.73711
5.73706
5.73698
5.73692
5.73681
5.7367
5.73656
5.7364
5.73621
5.73599
5.73574
5.73546
5.73515
5.73479
5.73439
5.73395
5.73345
5.73292
5.73233
5.7317
5.73103
5.73033
783.954
796.207
826.677
822.944
966.529
964.884
961.743
960.29
964.401
967.905
974.427
983.349
946.373
962.678
989.474
1020.96
259.354
316.26
405.291
531.606
6.57935
6.49196
6.47115
6.94577
6.50466
6.462
6.42312
6.42396
7.02787
6.79794
6.46084
6.45149
7.01872
6.99406
6.9833
6.6906
7.01546
6.99185
6.98005
6.59835
7.05108
7.03352
6.94963
6.97825
6.41509
6.48719
6.28004
6.33341
6.3018
6.29358
6.29113
6.29409
6.30262
6.30138
6.30042
6.29872
6.28081
6.28149
6.28213
6.28008
6.24246
6.24092
6.23814
6.23619
6.20126
6.19841
6.1947
6.18996
6.1567
6.15198
6.14629
6.13957
6.11217
6.10581
6.09839
6.08983
6.0685
6.06069
6.05182
6.04181
6.02658
6.01752
6.00741
5.99617
5.987
5.9769
5.96577
5.95353
5.95014
5.93921
5.92727
5.91424
5.91631
5.90474
5.89219
5.87859
5.88569
5.87369
5.86075
5.84678
5.85842
5.8462
5.83307
5.81896
5.83453
5.8223
5.8092
5.79517
5.81398
5.80196
5.78913
5.77541
5.79666
5.78506
5.77269
5.75952
5.78235
5.77135
5.75967
5.74726
5.77076
5.76055
5.74973
5.73827
5.76156
5.75226
5.74245
5.73213
5.75437
5.74608
5.73739
5.72832
5.7488
5.74154
5.73397
5.72609
5.74455
5.73833
5.73188
5.72521
5.7413
5.73609
5.73073
5.72522
5.73876
5.73451
5.73017
5.72575
5.73666
5.7333
5.7299
5.72646
5.73479
5.73226
5.72971
5.72715
5.73303
5.73127
5.7295
5.72773
5.73136
5.73032
5.72928
5.72824
5.7298
5.72945
5.72911
5.72877
777.074
831.826
880.201
721.558
424.46
218.911
218.024
215.514
213.041
209.411
205.3
202.018
201.951
207.662
215.853
221.739
225.619
228.074
708.028
945.551
942.134
953.118
680.08
276.93
213.264
212.792
212.073
210.052
206.521
202.255
198.512
196.74
201.827
212.971
220.27
224.238
221.31
792.45
997.413
1012.15
1027.77
619.129
197.078
215.453
215.421
210.846
208.84
205.753
201.905
198.853
198.049
201.14
213.383
220.923
224.05
263.79
929.095
1048
1075.48
1112.92
675.849
195.753
222.49
231.394
217.328
211.105
207.468
204.166
202.096
202.585
206.106
215.912
223.654
226.981
463.719
1094.5
767.978
1072.71
1173.59
952.654
209.967
241.434
245.781
229.138
218.729
213.885
210.102
209.078
210.754
214.478
220.819
226.748
232.502
714.434
1260.43
103.385
476.158
1163.28
1205.23
301.705
261.91
247.144
235.806
225.69
221.062
220.821
221.433
223.403
224.813
229.128
231.788
236.519
986.645
1426.94
6.3118
6.71948
424.302
1245.91
1338.44
879.022
247.118
240.09
230.297
226.469
226.717
229.47
230.933
232.521
237.604
274.94
382.744
1341.43
1625.42
6.50944
6.6727
6.53186
315.094
1344
1424.06
1079.8
567.597
225.255
226.288
228.788
232.579
235.405
236.022
236.753
709.814
1424.69
1692.73
1878.02
6.51801
6.64125
6.71588
6.7315
160.235
1009.33
1248.61
1288.35
1046.33
540.974
228.623
236.228
237.891
238.199
573.633
1596.69
1777.55
1911.71
2117.99
6.57967
6.74422
6.83517
6.99385
6.97468
55.5648
500.267
1080.87
1189.73
1233.73
811.964
572.83
823.336
1330.69
1612.85
1663.68
1539.56
1691.96
2174.32
6.89526
6.86368
7.21719
7.2326
6.84276
6.77512
5.98771
94.0309
480.113
840.157
1249.67
1596.86
1725.77
1685.8
1278.18
643.378
653.761
852.926
2027.48
6.75632
7.04915
7.09553
6.68677
6.79892
6.72626
12.9125
48.5517
52.2005
170.768
684.176
1474.42
1876.66
1492.19
886.962
645.436
615.017
959.519
2099.4
6.30575
6.33635
6.3771
6.45657
6.56822
6.81548
8.05312
7.36247
9.7264
82.544
925.986
1505.8
1634.55
1837.92
1908.5
1918.69
1465.44
1828.69
2199.2
6.29805
6.31211
6.33529
6.36424
6.38054
6.30459
5.97132
6.56521
13.8206
15.9193
9.83857
10.2045
62.5836
871.261
1883.51
2242.13
2271.65
2274.62
2278.21
6.27688
6.27209
6.26758
6.26057
6.22959
6.09828
5.68879
5.13367
7.32779
10.4125
10.3548
9.2272
9.59371
12.8844
333.574
2100.45
2340.1
2344.18
2280.41
6.23079
6.21787
6.1975
6.16746
6.11451
5.9956
5.70239
5.20076
5.05877
6.87725
8.29843
8.73227
9.04496
10.1073
15.0001
774.288
2211.71
2379.16
1919.9
6.17981
6.15857
6.12915
6.08958
6.03256
5.93782
5.76567
5.50872
5.32538
5.65917
6.02043
8.38899
12.0198
12.0593
35.9975
76.3189
1082.8
2346.73
1969.83
6.1263
6.09962
6.06431
6.0204
5.96566
5.89147
5.78594
5.66086
5.57467
5.71539
6.0247
6.97905
10.1185
11.2758
19.1781
27.0466
478.525
2015.59
2262.89
6.0735
6.04286
6.00393
5.9577
5.90491
5.84307
5.76856
5.69506
5.65169
5.73751
5.93026
6.12348
8.48957
54.4513
93.1195
94.2566
359.93
1773.95
2391.41
6.02305
5.9893
5.94775
5.89989
5.84766
5.7916
5.72935
5.66353
5.61536
5.63495
5.69956
5.69752
5.98937
199.965
725.44
733.906
404.053
722.933
1821.6
5.97543
5.93927
5.89564
5.84609
5.79293
5.73837
5.67745
5.60858
5.53593
5.49105
5.45488
5.38239
5.87776
244.722
889.217
898.414
850.082
336.937
358.747
5.93117
5.89306
5.84769
5.79633
5.74107
5.68231
5.61767
5.54123
5.44602
5.34361
5.20255
4.9706
4.74525
23.6767
376.656
933.104
944.882
842.628
358.115
5.89062
5.85099
5.8042
5.75111
5.6933
5.63054
5.55855
5.47364
5.36072
5.20656
4.97635
4.62747
4.55256
3.68208
3.74307
123.675
804.776
1093.68
1112.43
5.85405
5.81334
5.76553
5.71108
5.65088
5.58648
5.51162
5.41826
5.28799
5.10095
4.82577
4.43698
4.32841
3.55539
3.64019
3.85161
6.85896
726.579
1135.31
5.82169
5.78038
5.73207
5.67683
5.61509
5.54873
5.47335
5.37123
5.2351
5.04014
4.75592
4.38521
4.18292
3.54037
3.67239
3.94164
4.89809
27.2143
1164.4
5.79368
5.75233
5.70411
5.64878
5.58649
5.51887
5.43737
5.33751
5.20253
5.01875
4.75567
4.43256
4.05951
4.0416
3.77463
4.02436
4.6511
59.119
1197.4
5.7701
5.72932
5.68187
5.6271
5.56373
5.50067
5.41307
5.31185
5.18405
5.01766
4.80408
4.53579
4.24116
4.5291
4.22644
4.18424
4.51425
48.0205
664.317
5.75095
5.71139
5.66555
5.61285
5.55296
5.48804
5.40128
5.29674
5.17824
5.03291
4.87477
4.68966
4.47809
4.92878
4.65293
4.47292
4.49805
167.631
163.418
5.73609
5.69839
5.65487
5.60462
5.54614
5.4877
5.40162
5.30161
5.1896
5.06945
4.9623
4.86282
4.75162
5.26119
4.73292
4.69725
14.5603
222.802
408.372
5.72523
5.69004
5.64972
5.60346
5.55148
5.49252
5.41297
5.32411
5.22862
5.13725
5.07125
5.02786
5.20651
5.48125
4.8412
4.84568
30.3603
33.9174
671.332
5.718
5.68585
5.64959
5.60843
5.56357
5.50959
5.43871
5.3643
5.29227
5.2322
5.19753
5.18364
5.52923
5.23157
5.01968
9.62572
35.4999
17.5214
694.198
5.71392
5.6851
5.65344
5.61803
5.57963
5.53485
5.47944
5.42295
5.37382
5.33978
5.32787
5.32603
5.52478
5.25988
5.19162
23.7796
37.1284
18.3769
717.407
5.71252
5.68693
5.66009
5.63067
5.59937
5.56589
5.52915
5.49679
5.46444
5.44507
5.44509
5.45106
5.46081
5.40188
5.353
28.0961
38.5108
16.3781
718.532
5.71238
5.69118
5.66879
5.64523
5.62109
5.59785
5.5775
5.56793
5.55568
5.54515
5.54527
5.71824
5.79804
5.56738
5.51297
23.9438
39.1483
15.9477
534.812
5.71369
5.69632
5.67837
5.66024
5.64266
5.62728
5.61652
5.61701
5.62652
5.61762
5.79229
5.93904
5.88081
5.61985
5.67934
30.5536
18.5652
15.9188
547.069
5.71578
5.70185
5.68792
5.67449
5.6624
5.65319
5.64868
5.65234
5.66623
5.67387
5.75329
5.83545
5.73524
5.72859
7.37806
32.649
16.355
16.3165
523.766
5.71825
5.70732
5.69677
5.68731
5.67948
5.67504
5.67511
5.68127
5.69445
5.71158
5.72759
5.74398
5.76627
5.79979
9.93713
33.7432
22.5487
16.5287
523.241
5.72067
5.71261
5.70453
5.6983
5.69362
5.69235
5.69528
5.70295
5.71659
5.73767
5.76183
5.78128
5.79592
5.81696
14.2617
34.8973
32.6068
16.4752
657.074
5.72286
5.71699
5.71149
5.70747
5.70488
5.7053
5.70927
5.71683
5.72962
5.74916
5.77049
5.78759
5.79296
5.80329
8.60524
35.7472
36.1122
18.3351
731.118
5.72478
5.72084
5.71729
5.71487
5.7136
5.71455
5.71819
5.72428
5.73416
5.74882
5.76458
5.77388
5.77033
5.76649
5.7382
25.0341
36.4896
28.1615
747.736
5.72652
5.72427
5.72229
5.72103
5.72051
5.72136
5.72384
5.72779
5.73371
5.74207
5.74896
5.74838
5.73687
5.71601
5.67776
5.51181
25.3511
24.0648
763.593
5.72821
5.72748
5.72685
5.72647
5.72637
5.72675
5.72771
5.72916
5.73071
5.73136
5.72745
5.71468
5.69111
5.65469
5.60708
5.49066
6.72339
6.88887
616.102
)
;

boundaryField
{
    leftWall
    {
        type            fixedFluxPressure;
        gradient        uniform 0;
        value           nonuniform List<scalar> 
50
(
610.193
610.11
609.51
609.107
609.599
611.332
614.618
619.24
616.368
216.545
6.51657
6.52365
6.50942
6.45956
6.43404
6.40258
6.37571
6.35062
6.32688
6.30418
6.28217
6.26067
6.23953
6.21855
6.19768
6.17691
6.15625
6.13569
6.11525
6.09495
6.0748
6.05483
6.03506
6.01551
5.9962
5.97717
5.95846
5.94005
5.92192
5.9041
5.88656
5.86929
5.85227
5.83544
5.8188
5.80229
5.78585
5.76951
5.75326
5.73709
)
;
    }
    rightWall
    {
        type            fixedFluxPressure;
        gradient        uniform 0;
        value           nonuniform List<scalar> 
50
(
1191.01
1176.6
1138.56
1083.98
1020.4
944.968
851.714
760.685
708.028
792.45
929.095
1094.5
1260.43
1426.94
1625.42
1878.02
2117.99
2174.32
2027.48
2099.4
2199.2
2278.21
2280.41
1919.9
1969.83
2262.89
2391.41
1821.6
358.747
358.115
1112.43
1135.31
1164.4
1197.4
664.317
163.418
408.372
671.332
694.198
717.407
718.532
534.812
547.069
523.766
523.241
657.074
731.118
747.736
763.593
616.102
)
;
    }
    lowerWall
    {
        type            fixedFluxPressure;
        gradient        uniform 0;
        value           nonuniform List<scalar> 
62
(
610.193
606.818
607.476
612.242
622.231
634.89
647.077
657.766
668.516
681.187
696.586
714.586
734.735
756.638
779.874
803.841
827.476
848.615
864.389
872.707
865.106
870.708
909.232
909.232
903.806
901.621
909.199
924.345
938.414
940.473
936.16
783.954
796.207
826.677
822.944
960.937
958.095
918.151
877.012
763.299
733.203
674.552
597.138
960.937
991.89
960.951
743.299
674.512
656.877
607.652
374.488
253.36
240.229
248.605
255.06
267.928
290.278
308.182
375.127
709.337
1224.98
1191.01
)
;
    }
    atmosphere
    {
        type            prghTotalPressure;
        rho             rho;
        psi             none;
        gamma           1;
        p0              uniform 0;
        value           nonuniform List<scalar> 
46
(
5.72904
5.72904
5.72904
5.72904
5.72904
5.72904
5.72904
5.72904
5.72904
5.72904
5.72904
5.72904
5.72904
5.72904
5.72904
5.72904
5.72904
5.72904
5.72904
5.72904
5.72904
5.72904
5.72904
5.72904
5.72904
5.72904
5.72904
5.72904
5.72904
5.72904
5.72904
5.72904
5.72904
5.72904
5.72901
5.72807
5.72441
5.71428
5.69375
5.66163
5.61554
5.54524
5.4125
5.64064
5.72847
622.793
)
;
        rho             rho;
    }
    defaultFaces
    {
        type            empty;
    }
}


// ************************************************************************* //
