/*--------------------------------*- C++ -*----------------------------------*\
  =========                 |
  \\      /  F ield         | OpenFOAM: The Open Source CFD Toolbox
   \\    /   O peration     | Website:  https://openfoam.org
    \\  /    A nd           | Version:  13
     \\/     M anipulation  |
\*---------------------------------------------------------------------------*/
FoamFile
{
    format      ascii;
    class       surfaceScalarField;
    location    "0.55";
    object      phi;
}
// * * * * * * * * * * * * * * * * * * * * * * * * * * * * * * * * * * * * * //

dimensions      [0 3 -1 0 0 0 0];

internalField   nonuniform List<scalar> 
4432
(
-3.4524e-06
3.4524e-06
-5.5318e-06
2.07941e-06
-4.82137e-06
-7.10429e-07
-2.24899e-06
-2.57237e-06
1.77669e-06
-4.02568e-06
6.60567e-06
-4.82898e-06
1.12503e-05
-4.64463e-06
1.49148e-05
-3.6645e-06
1.73195e-05
-2.40466e-06
1.85784e-05
-1.25895e-06
1.89116e-05
-3.33171e-07
1.84755e-05
4.36111e-07
1.73556e-05
1.11988e-06
1.55941e-05
1.76147e-06
1.30532e-05
2.54096e-06
9.39478e-06
3.65839e-06
4.32505e-06
5.06973e-06
-1.70109e-06
6.02614e-06
-6.33218e-06
4.63109e-06
-1.11758e-05
4.84365e-06
-1.80372e-05
6.86142e-06
-1.57431e-05
-2.29409e-06
-1.57432e-05
-3.85355e-06
7.30595e-06
-5.21077e-06
3.43662e-06
-4.21724e-06
-1.70396e-06
-1.73532e-06
-5.0543e-06
2.10361e-06
-7.86461e-06
6.85375e-06
-9.57912e-06
1.14732e-05
-9.26408e-06
1.50966e-05
-7.28791e-06
1.74451e-05
-4.75313e-06
1.86793e-05
-2.49315e-06
1.91162e-05
-7.7005e-07
1.90535e-05
4.98731e-07
1.871e-05
1.46345e-06
1.81666e-05
2.30486e-06
1.7438e-05
3.26958e-06
1.63062e-05
4.79019e-06
1.40954e-05
7.28053e-06
9.57643e-06
1.05451e-05
2.19756e-06
1.201e-05
-6.91612e-06
1.39573e-05
-1.26656e-05
1.26109e-05
-9.90901e-06
-5.0507e-06
-2.56522e-05
-3.04747e-06
1.03534e-05
-3.96353e-06
4.35269e-06
-3.11879e-06
-2.5487e-06
-1.09699e-06
-7.07609e-06
2.2674e-06
-1.1229e-05
6.81772e-06
-1.41294e-05
1.1392e-05
-1.38384e-05
1.49467e-05
-1.08426e-05
1.71693e-05
-6.97578e-06
1.82801e-05
-3.60395e-06
1.86135e-05
-1.10337e-06
1.84328e-05
6.79445e-07
1.79107e-05
1.98547e-06
1.72041e-05
3.0115e-06
1.64798e-05
3.99391e-06
1.59771e-05
5.29285e-06
1.58505e-05
7.40716e-06
1.51906e-05
1.1205e-05
1.17801e-05
1.54205e-05
5.58497e-06
2.01524e-05
-1.80688e-06
2.00028e-05
-2.20053e-06
-4.65703e-06
-2.78527e-05
-1.86709e-06
1.22205e-05
-2.1691e-06
4.65471e-06
-1.48129e-06
-3.23651e-06
3.21765e-08
-8.58956e-06
2.84923e-06
-1.40461e-05
7.00548e-06
-1.82857e-05
1.13036e-05
-1.81365e-05
1.46272e-05
-1.41662e-05
1.66613e-05
-9.00991e-06
1.76494e-05
-4.59205e-06
1.79433e-05
-1.39724e-06
1.77936e-05
8.2916e-07
1.73579e-05
2.42116e-06
1.67421e-05
3.62731e-06
1.60486e-05
4.68741e-06
1.54435e-05
5.89797e-06
1.53183e-05
7.53232e-06
1.60849e-05
1.04385e-05
1.67435e-05
1.47618e-05
1.5981e-05
2.0915e-05
1.33034e-05
2.26803e-05
7.47281e-06
1.1736e-06
-2.03799e-05
-3.06471e-07
1.2527e-05
4.83748e-07
3.86449e-06
1.42514e-06
-4.17791e-06
2.92372e-06
-1.00881e-05
5.51343e-06
-1.66358e-05
8.85658e-06
-2.16288e-05
1.21285e-05
-2.14084e-05
1.45793e-05
-1.66169e-05
1.6065e-05
-1.04957e-05
1.68247e-05
-5.35173e-06
1.71066e-05
-1.67911e-06
1.70526e-05
8.83129e-07
1.67758e-05
2.69803e-06
1.63643e-05
4.03876e-06
1.59039e-05
5.14787e-06
1.54869e-05
6.31497e-06
1.53018e-05
7.71741e-06
1.59178e-05
9.8224e-06
1.7774e-05
1.29057e-05
2.04558e-05
1.82332e-05
2.09873e-05
2.21487e-05
1.39251e-05
8.2359e-06
-6.45484e-06
1.91749e-06
1.06095e-05
4.41476e-06
1.36722e-06
6.6375e-06
-6.40064e-06
9.0961e-06
-1.25467e-05
1.15868e-05
-1.91265e-05
1.34384e-05
-2.34804e-05
1.46917e-05
-2.26618e-05
1.54554e-05
-1.73806e-05
1.58421e-05
-1.08823e-05
1.60561e-05
-5.56575e-06
1.62166e-05
-1.83958e-06
1.62712e-05
8.28538e-07
1.61918e-05
2.77742e-06
1.60074e-05
4.22312e-06
1.57899e-05
5.36544e-06
1.56201e-05
6.48472e-06
1.56612e-05
7.67636e-06
1.61724e-05
9.31121e-06
1.76161e-05
1.14619e-05
2.0785e-05
1.50644e-05
2.29729e-05
1.99608e-05
1.66467e-05
1.45621e-05
1.01919e-05
4.40663e-06
6.20286e-06
9.54342e-06
-3.76957e-06
1.44005e-05
-1.12577e-05
1.83705e-05
-1.65168e-05
2.02223e-05
-2.09782e-05
1.97443e-05
-2.30024e-05
1.84277e-05
-2.13452e-05
1.72889e-05
-1.62419e-05
1.64563e-05
-1.00498e-05
1.5932e-05
-5.04144e-06
1.56528e-05
-1.56035e-06
1.56596e-05
8.21764e-07
1.56771e-05
2.75994e-06
1.56937e-05
4.20646e-06
1.57183e-05
5.34085e-06
1.57678e-05
6.43529e-06
1.60417e-05
7.40239e-06
1.67193e-05
8.63361e-06
1.77911e-05
1.03901e-05
2.01279e-05
1.27276e-05
2.2557e-05
1.75317e-05
1.87835e-05
1.83355e-05
2.89754e-05
6.79117e-06
-5.8831e-07
1.55966e-05
-1.2575e-05
2.35596e-05
-1.92207e-05
2.77924e-05
-2.07496e-05
2.74237e-05
-2.06095e-05
2.42103e-05
-1.97891e-05
2.09694e-05
-1.81043e-05
1.88171e-05
-1.40896e-05
1.75213e-05
-8.7539e-06
1.67593e-05
-4.27942e-06
1.63203e-05
-1.12139e-06
1.58926e-05
1.24945e-06
1.5624e-05
3.02854e-06
1.55126e-05
4.31786e-06
1.55783e-05
5.2752e-06
1.57602e-05
6.25333e-06
1.62851e-05
6.87752e-06
1.7261e-05
7.65774e-06
1.84633e-05
9.18774e-06
2.01977e-05
1.09932e-05
2.21091e-05
1.56203e-05
1.92882e-05
2.11565e-05
4.82636e-05
2.75355e-05
-2.75355e-05
7.47433e-05
-4.72077e-05
0.000143746
-6.90027e-05
0.000159844
-1.60976e-05
0.000157401
2.44234e-06
4.94418e-05
0.000107959
-0.000131451
0.000180893
-0.000209828
7.83765e-05
-0.000229425
1.95975e-05
-0.000215242
-1.4183e-05
-0.000200596
-1.46455e-05
-0.000188191
-1.24051e-05
-0.000178372
-9.81977e-06
-0.00016895
-9.4219e-06
-0.000155347
-1.36024e-05
-0.000136064
-1.92836e-05
-0.000100307
-3.57571e-05
-2.91361e-05
-7.11706e-05
-2.9136e-05
5.13043e-07
-2.80486e-05
2.01793e-05
-6.6874e-05
9.14557e-05
-0.000140279
0.00011743
-4.20722e-05
6.72546e-05
5.26181e-05
-0.000131629
0.000306843
-0.000282968
0.000332232
-0.000338785
0.000134193
-0.000342172
2.29851e-05
-0.000318945
-3.741e-05
-0.00029754
-3.60514e-05
-0.000270854
-3.90901e-05
-0.00024734
-3.33345e-05
-0.000223382
-3.33791e-05
-0.000193469
-4.35155e-05
-0.000158569
-5.41839e-05
-0.000112075
-8.22515e-05
-3.77283e-05
-0.000145517
-6.68643e-05
-1.70608e-05
-1.09878e-05
-1.86544e-06
-8.20693e-05
2.54275e-05
-0.000167572
5.37163e-05
-7.0361e-05
1.06134e-06
0.000105273
-0.000206456
0.000514361
-0.000290264
0.00041604
-0.000266142
0.000110071
-0.000286789
4.36321e-05
-0.000351436
2.72367e-05
-0.000400979
1.34916e-05
-0.000420406
-1.96634e-05
-0.000397516
-5.62246e-05
-0.000345654
-8.5241e-05
-0.000284895
-0.000104274
-0.000224193
-0.000114887
-0.000141286
-0.000165158
-4.81101e-05
-0.000238693
-0.000114974
-1.08053e-05
-1.82496e-07
4.1699e-06
-9.70445e-05
7.39976e-06
-0.000170802
4.81031e-05
-0.000111064
4.36423e-05
0.000109734
-7.70127e-05
0.000635016
-0.00016608
0.000505107
-0.000172718
0.000116709
-0.000219884
9.07981e-05
-0.000293195
0.000100548
-0.000349657
6.99537e-05
-0.000384407
1.5086e-05
-0.000382233
-5.83987e-05
-0.00034145
-0.000126024
-0.000285675
-0.00016005
-0.000230439
-0.000170122
-0.000154711
-0.000240886
-5.1001e-05
-0.000342403
-0.000165975
5.69904e-07
-7.52395e-07
1.50389e-05
-0.000111514
9.53915e-06
-0.000165302
5.93527e-05
-0.000160878
9.33112e-05
7.57752e-05
-5.40111e-06
0.000733728
-6.55183e-05
0.000565225
-0.000132454
0.000183645
-0.000204322
0.000162666
-0.00026832
0.000164545
-0.000320158
0.000121792
-0.000350709
4.56369e-05
-0.000341907
-6.7201e-05
-0.000289511
-0.000178421
-0.000221049
-0.000228512
-0.00017482
-0.00021635
-0.000119337
-0.000296369
-4.69921e-05
-0.000414748
-0.000212968
1.29259e-05
-1.36783e-05
2.61789e-05
-0.000124767
2.36764e-05
-0.0001628
4.12311e-05
-0.000178433
4.3624e-05
7.33824e-05
-7.89042e-06
0.000785243
-2.76662e-05
0.000585001
-0.000131579
0.000287559
-0.000217549
0.000248636
-0.000287373
0.00023437
-0.000346304
0.000180723
-0.000378405
7.77376e-05
-0.0003622
-8.3406e-05
-0.000289606
-0.000251014
-0.000191842
-0.000326276
-0.000123147
-0.000285045
-8.2192e-05
-0.000337324
-4.06896e-05
-0.000456251
-0.000253657
2.72557e-05
-4.09341e-05
3.69132e-05
-0.000134424
3.41099e-05
-0.000159996
3.77466e-05
-0.000182069
4.66387e-05
6.44903e-05
7.52131e-06
0.00082436
-2.09324e-05
0.000613454
-0.000134302
0.000400928
-0.00023175
0.000346084
-0.000310174
0.000312793
-0.000373519
0.000244068
-0.000406222
0.000110441
-0.000389427
-0.000100201
-0.000312122
-0.000328319
-0.000193932
-0.000444465
-8.43443e-05
-0.000394633
-4.6678e-05
-0.00037499
-3.29175e-05
-0.000470011
-0.000286575
4.20904e-05
-8.30245e-05
4.49449e-05
-0.000137278
3.82945e-05
-0.000153346
3.72102e-05
-0.000180985
5.70167e-05
4.46838e-05
2.84356e-05
0.000852941
-1.17328e-05
0.000653623
-0.000133903
0.000523098
-0.00023385
0.00044603
-0.000309743
0.000388687
-0.000365058
0.000299382
-0.000388218
0.000133601
-0.000372601
-0.000115817
-0.000311413
-0.000389507
-0.000202658
-0.000553219
-6.63156e-05
-0.000530976
-8.5973e-06
-0.000432709
-2.24463e-05
-0.000456162
-0.000309021
2.1734e-05
-2.23223e-05
4.91314e-05
-3.99724e-05
6.37421e-05
-3.38314e-05
6.11134e-05
-1.81209e-05
5.15481e-05
-1.10442e-05
4.2113e-05
-1.0354e-05
3.54765e-05
-1.14678e-05
3.25347e-05
-1.11478e-05
3.2691e-05
-8.91016e-06
3.41441e-05
-5.73253e-06
3.56575e-05
-2.63482e-06
3.68623e-05
4.45957e-08
3.7018e-05
2.87286e-06
3.65049e-05
4.83094e-06
3.57704e-05
6.00974e-06
3.49211e-05
7.10261e-06
3.53648e-05
6.43386e-06
3.74678e-05
5.55468e-06
4.07638e-05
5.89177e-06
4.57792e-05
5.97781e-06
5.49928e-05
6.40666e-06
7.01805e-05
5.96882e-06
1.45211e-05
0.000103923
3.03351e-05
-5.26574e-05
4.85666e-05
-5.82039e-05
2.47024e-05
-9.96712e-06
-2.12181e-06
8.70325e-06
-6.98752e-06
-6.17847e-06
-7.71458e-06
-9.62697e-06
-1.03182e-05
-8.8641e-06
-9.59123e-06
-1.18748e-05
-3.07285e-06
-1.54285e-05
5.67359e-06
-1.4479e-05
1.61481e-05
-1.31094e-05
2.82983e-05
-1.21055e-05
3.63662e-05
-5.19506e-06
3.94253e-05
1.77184e-06
3.93009e-05
6.13419e-06
3.71649e-05
9.23862e-06
3.73082e-05
6.29054e-06
3.93902e-05
3.47264e-06
4.20672e-05
3.21474e-06
4.63876e-05
1.65747e-06
5.38936e-05
-1.09935e-06
6.31661e-05
-3.30367e-06
-5.00568e-06
8.26929e-05
2.42549e-06
-5.50829e-05
-2.50728e-05
-3.07056e-05
-5.41457e-05
1.91058e-05
-6.6277e-05
2.08346e-05
-7.18224e-05
-6.32999e-07
-9.06763e-05
9.22709e-06
-0.000112802
1.32614e-05
-0.00012916
4.48356e-06
-0.000139959
-4.62934e-06
-0.000138517
-1.59207e-05
-0.000116404
-3.52231e-05
-7.02879e-05
-5.82214e-05
-2.23401e-05
-5.31428e-05
1.46858e-06
-2.20369e-05
1.37208e-05
-6.11799e-06
2.54246e-05
-2.4652e-06
3.78972e-05
-6.18211e-06
4.42196e-05
-2.84971e-06
4.57744e-05
1.6599e-06
4.82022e-05
-7.70343e-07
5.34396e-05
-6.33666e-06
6.03769e-05
-1.0241e-05
-1.49802e-05
7.03514e-05
-2.64027e-05
-2.86801e-05
-4.45797e-05
-1.25285e-05
-4.22399e-05
1.67661e-05
-2.7531e-05
6.12598e-06
-2.76341e-05
-5.29768e-07
-3.18993e-05
1.34925e-05
-3.50409e-05
1.64031e-05
-4.0476e-05
9.91874e-06
-5.10087e-05
5.90334e-06
-6.85131e-05
1.58364e-06
-9.80854e-05
-5.65081e-06
-0.000135131
-2.1176e-05
-0.000157128
-3.11456e-05
-0.000150497
-2.86679e-05
-0.00012555
-3.10651e-05
-7.67225e-05
-5.12926e-05
-3.80808e-05
-4.48238e-05
-3.72872e-06
-3.72018e-05
1.48387e-05
-1.69075e-05
3.29265e-05
-1.88581e-05
4.87525e-05
-2.21627e-05
5.79361e-05
-1.94247e-05
-2.12541e-05
6.421e-05
-2.19547e-05
-6.72533e-06
-2.01399e-05
-1.43433e-05
-8.18726e-06
4.81362e-06
-4.60611e-06
2.54495e-06
-7.65264e-06
2.51691e-06
-5.04844e-06
1.08884e-05
3.12963e-07
1.10418e-05
3.86095e-06
6.37079e-06
6.86178e-06
2.90251e-06
7.47167e-06
9.73726e-07
-1.6062e-06
3.42706e-06
-3.01584e-05
7.37626e-06
-6.25957e-05
1.2918e-06
-8.4178e-05
-7.08552e-06
-8.70638e-05
-2.81792e-05
-8.89916e-05
-4.93648e-05
-9.06937e-05
-4.31216e-05
-9.60947e-05
-3.18009e-05
-8.71283e-05
-2.5874e-05
-5.94019e-05
-4.65845e-05
-2.09722e-05
-6.05924e-05
2.59702e-06
-4.29939e-05
-3.50152e-05
1.63581e-05
-8.33002e-06
1.60472e-06
-1.03405e-05
-1.23328e-05
-7.78029e-06
2.25343e-06
-8.35393e-06
3.11868e-06
-1.01586e-05
4.32176e-06
-7.68115e-06
8.41106e-06
-6.35636e-06
9.71709e-06
-7.43324e-06
7.44772e-06
-6.88224e-06
2.35152e-06
-2.2866e-06
-3.6219e-06
8.42392e-06
-7.28344e-06
2.08648e-05
-5.06462e-06
1.79616e-05
4.1951e-06
3.51529e-08
1.0841e-05
-1.23573e-05
-1.57868e-05
-1.89478e-05
-4.27743e-05
-2.03482e-05
-4.17212e-05
-2.00777e-05
-3.20715e-05
-1.70846e-05
-2.88672e-05
-2.66931e-05
-3.69761e-05
-4.26502e-05
-4.46353e-05
-5.08786e-05
-3.47656e-05
-1.22011e-05
-7.36927e-05
-6.20848e-06
7.81319e-06
-8.13319e-06
-1.04081e-05
-6.12988e-06
2.50144e-07
-6.00818e-06
2.99705e-06
-6.50737e-06
4.82106e-06
-5.01411e-06
6.91791e-06
-3.12585e-06
7.82891e-06
-2.38263e-06
6.70454e-06
-3.60483e-06
3.57375e-06
-5.89316e-06
-1.33355e-06
-6.67079e-06
-6.50579e-06
-2.95814e-06
-8.77724e-06
6.13782e-06
-4.90084e-06
1.3749e-05
3.22979e-06
1.06951e-05
-1.2733e-05
2.5184e-06
-3.45976e-05
-9.22169e-07
-3.82807e-05
3.94671e-06
-3.69405e-05
1.42439e-05
-3.91645e-05
1.84409e-05
-4.11732e-05
1.74229e-05
-4.36173e-05
3.17186e-05
-4.90614e-05
-3.07318e-05
5.02494e-05
-4.66686e-06
1.248e-05
-5.71774e-06
-9.35733e-06
-5.25649e-06
-2.11114e-07
-5.23484e-06
2.97547e-06
-4.75025e-06
4.33655e-06
-3.52154e-06
5.6893e-06
-2.37887e-06
6.68632e-06
-2.09984e-06
6.42555e-06
-2.65807e-06
4.13201e-06
-3.74999e-06
-2.41615e-07
-5.59904e-06
-4.65673e-06
-6.27464e-06
-8.10165e-06
-2.48497e-06
-8.69055e-06
6.26455e-06
-5.51977e-06
8.14563e-06
-1.46141e-05
2.56094e-06
-2.90129e-05
-2.0693e-06
-3.36505e-05
-2.88818e-06
-3.61217e-05
-1.42603e-06
-4.06267e-05
1.47063e-06
-4.40699e-05
6.92207e-06
-4.90689e-05
2.09077e-05
-6.3047e-05
-6.25494e-05
5.27254e-05
-3.64496e-06
1.61249e-05
-4.44761e-06
-8.55476e-06
-3.97037e-06
-6.8837e-07
-3.8801e-06
2.88523e-06
-3.48873e-06
3.94524e-06
-2.46853e-06
4.66916e-06
-1.10933e-06
5.32716e-06
-4.13001e-08
5.35755e-06
3.88394e-08
4.05188e-06
-1.33239e-06
1.12961e-06
-2.99261e-06
-2.99654e-06
-4.26594e-06
-6.82836e-06
-3.20863e-06
-9.74792e-06
2.66634e-06
-1.13948e-05
5.76816e-06
-1.7716e-05
2.41276e-06
-2.56575e-05
-1.18495e-06
-3.00529e-05
-3.80564e-06
-3.3501e-05
-5.51532e-06
-3.8917e-05
-3.72398e-06
-4.58612e-05
1.69041e-06
-5.44832e-05
6.48095e-06
-6.78374e-05
-7.4987e-05
1.89187e-05
-2.62148e-06
1.87463e-05
-3.3067e-06
-7.86963e-06
-3.1823e-06
-8.128e-07
-3.1087e-06
2.81165e-06
-2.77313e-06
3.6097e-06
-2.01059e-06
3.90664e-06
-8.3818e-07
4.15477e-06
4.62552e-07
4.05683e-06
1.43663e-06
3.07779e-06
1.69345e-06
8.72741e-07
1.07539e-06
-2.37853e-06
1.95007e-07
-5.94804e-06
-1.03557e-07
-9.44943e-06
1.01863e-06
-1.25171e-05
5.81957e-07
-1.72794e-05
-2.45837e-06
-2.26173e-05
-5.93283e-06
-2.65785e-05
-8.83373e-06
-3.06001e-05
-1.10302e-05
-3.67205e-05
-1.16205e-05
-4.5271e-05
-1.07703e-05
-5.53334e-05
-1.23628e-05
-6.62448e-05
-7.48426e-05
-1.25073e-05
-1.82494e-06
2.05712e-05
-2.47816e-06
-7.21651e-06
-2.55248e-06
-7.38522e-07
-2.57123e-06
2.83038e-06
-2.37898e-06
3.41743e-06
-1.90198e-06
3.42963e-06
-1.08673e-06
3.3395e-06
-1.89063e-08
2.98899e-06
9.98093e-07
2.06075e-06
1.55125e-06
3.19534e-07
1.43488e-06
-2.26222e-06
7.72992e-07
-5.28622e-06
-2.18227e-07
-8.45828e-06
-1.17298e-06
-1.15624e-05
-3.09778e-06
-1.53546e-05
-6.26235e-06
-1.94527e-05
-9.70688e-06
-2.31339e-05
-1.30816e-05
-2.72254e-05
-1.67442e-05
-3.30579e-05
-2.11044e-05
-4.09109e-05
-2.59547e-05
-5.0483e-05
-3.15009e-05
-6.06985e-05
-6.77928e-05
-3.85506e-05
-1.25766e-06
2.18288e-05
-1.90388e-06
-6.57039e-06
-2.136e-06
-5.06473e-07
-2.27793e-06
2.97224e-06
-2.2653e-06
3.40475e-06
-2.06746e-06
3.23175e-06
-1.66437e-06
2.93638e-06
-1.09304e-06
2.41762e-06
-5.19682e-07
1.48735e-06
-2.21348e-07
2.1154e-08
-4.72369e-07
-2.01124e-06
-1.31875e-06
-4.43988e-06
-2.72397e-06
-7.0531e-06
-4.47206e-06
-9.81429e-06
-6.92562e-06
-1.29011e-05
-1.00763e-05
-1.63021e-05
-1.34808e-05
-1.97295e-05
-1.72387e-05
-2.34675e-05
-2.21268e-05
-2.81698e-05
-2.88151e-05
-3.42226e-05
-3.72996e-05
-4.19984e-05
-4.74859e-05
-5.05121e-05
-5.68083e-05
-5.84704e-05
-8.78733e-07
2.27075e-05
-1.52055e-06
-5.92869e-06
-1.8943e-06
-1.32815e-07
-2.1602e-06
3.23805e-06
-2.31177e-06
3.55624e-06
-2.36091e-06
3.28083e-06
-2.32568e-06
2.90111e-06
-2.22817e-06
2.32008e-06
-2.17516e-06
1.4343e-06
-2.3402e-06
1.86163e-07
-2.92107e-06
-1.43039e-06
-4.01597e-06
-3.34501e-06
-5.59643e-06
-5.47266e-06
-7.62201e-06
-7.78872e-06
-1.01758e-05
-1.03474e-05
-1.33487e-05
-1.31292e-05
-1.70496e-05
-1.60286e-05
-2.13741e-05
-1.9143e-05
-2.69165e-05
-2.26274e-05
-3.44506e-05
-2.66885e-05
-4.48714e-05
-3.15777e-05
-5.86474e-05
-3.67361e-05
-4.04767e-05
-7.49791e-05
-6.5343e-07
2.33608e-05
-1.29062e-06
-5.29163e-06
-1.78171e-06
3.5816e-07
-2.16228e-06
3.61851e-06
-2.46032e-06
3.85418e-06
-2.70797e-06
3.52842e-06
-2.94404e-06
3.13714e-06
-3.2015e-06
2.5775e-06
-3.55653e-06
1.78929e-06
-4.11229e-06
7.41917e-07
-4.98563e-06
-5.57058e-07
-6.25136e-06
-2.07929e-06
-7.9346e-06
-3.78942e-06
-1.00567e-05
-5.66661e-06
-1.27029e-05
-7.70125e-06
-1.59834e-05
-9.84882e-06
-1.99465e-05
-1.20655e-05
-2.47017e-05
-1.43879e-05
-3.05093e-05
-1.68199e-05
-3.79086e-05
-1.92892e-05
-4.79342e-05
-2.15521e-05
-6.14984e-05
-2.31719e-05
-2.33003e-05
-7.86748e-05
-5.39417e-07
2.39002e-05
-1.18805e-06
-4.64313e-06
-1.75334e-06
9.23325e-07
-2.24143e-06
4.10649e-06
-2.66635e-06
4.27902e-06
-3.07615e-06
3.93817e-06
-3.50043e-06
3.56138e-06
-3.9937e-06
3.07074e-06
-4.60994e-06
2.40552e-06
-5.41723e-06
1.54921e-06
-6.48688e-06
5.12587e-07
-7.87947e-06
-6.86687e-07
-9.64465e-06
-2.02423e-06
-1.18344e-05
-3.47693e-06
-1.45251e-05
-5.0106e-06
-1.78052e-05
-6.56869e-06
-2.17719e-05
-8.09883e-06
-2.65677e-05
-9.5921e-06
-3.2359e-05
-1.10287e-05
-3.93851e-05
-1.22632e-05
-4.8044e-05
-1.28933e-05
-5.88741e-05
-1.23419e-05
-9.84045e-06
-7.23339e-05
-4.92554e-07
2.43927e-05
-1.15717e-06
-3.97865e-06
-1.7986e-06
1.56463e-06
-2.36083e-06
4.6686e-06
-2.8877e-06
4.80582e-06
-3.42443e-06
4.47484e-06
-3.99973e-06
4.13665e-06
-4.65358e-06
3.72455e-06
-5.4371e-06
3.18902e-06
-6.39788e-06
2.51001e-06
-7.59421e-06
1.70894e-06
-9.07828e-06
7.97422e-07
-1.09025e-05
-2.00035e-07
-1.31229e-05
-1.25654e-06
-1.58004e-05
-2.33313e-06
-1.89984e-05
-3.37065e-06
-2.27891e-05
-4.3081e-06
-2.72846e-05
-5.09669e-06
-3.26402e-05
-5.67316e-06
-3.90134e-05
-5.89002e-06
-4.64531e-05
-5.45367e-06
-5.49036e-05
-3.89143e-06
-4.71083e-07
-6.4273e-05
-4.80709e-07
2.48733e-05
-1.17329e-06
-3.28621e-06
-1.87383e-06
2.26503e-06
-2.49445e-06
5.28912e-06
-3.10155e-06
5.41285e-06
-3.73748e-06
5.11071e-06
-4.42689e-06
4.826e-06
-5.19901e-06
4.49663e-06
-6.09372e-06
4.08371e-06
-7.15926e-06
3.57554e-06
-8.43482e-06
2.9845e-06
-9.97033e-06
2.33294e-06
-1.18128e-05
1.64244e-06
-1.401e-05
9.40671e-07
-1.66159e-05
2.72724e-07
-1.96809e-05
-3.0571e-07
-2.32622e-05
-7.2677e-07
-2.74299e-05
-9.28989e-07
-3.22657e-05
-8.37448e-07
-3.78534e-05
-3.02416e-07
-4.42049e-05
8.97827e-07
-5.12074e-05
3.11108e-06
6.80465e-06
-5.84832e-05
-4.82626e-07
2.53558e-05
-1.20976e-06
-2.55924e-06
-1.95645e-06
3.01159e-06
-2.62412e-06
5.95668e-06
-3.28964e-06
6.07829e-06
-3.99798e-06
5.81899e-06
-4.7684e-06
5.59635e-06
-5.626e-06
5.35418e-06
-6.59739e-06
5.05508e-06
-7.72177e-06
4.69992e-06
-9.03976e-06
4.30253e-06
-1.05875e-05
3.88072e-06
-1.2401e-05
3.45589e-06
-1.45235e-05
3.06319e-06
-1.6994e-05
2.74321e-06
-1.98485e-05
2.54875e-06
-2.31266e-05
2.55139e-06
-2.68642e-05
2.80859e-06
-3.11022e-05
3.4006e-06
-3.58574e-05
4.45278e-06
-4.10947e-05
6.13507e-06
-4.67048e-05
8.7212e-06
1.25038e-05
-5.2404e-05
-4.85693e-07
2.58414e-05
-1.25128e-06
-1.79381e-06
-2.03302e-06
3.7932e-06
-2.73556e-06
6.65912e-06
-3.44096e-06
6.78361e-06
-4.19665e-06
6.57459e-06
-5.01659e-06
6.41622e-06
-5.92599e-06
6.26354e-06
-6.94157e-06
6.07063e-06
-8.09555e-06
5.85388e-06
-9.41748e-06
5.62446e-06
-1.09375e-05
5.40079e-06
-1.26888e-05
5.20724e-06
-1.47e-05
5.07447e-06
-1.69981e-05
5.04139e-06
-1.96111e-05
5.16181e-06
-2.2553e-05
5.49335e-06
-2.58489e-05
6.10458e-06
-2.95054e-05
7.05707e-06
-3.35068e-05
8.45422e-06
-3.78126e-05
1.04408e-05
-4.22763e-05
1.31849e-05
1.68945e-05
-4.6667e-05
-4.82823e-07
2.63242e-05
-1.28746e-06
-9.89313e-07
-2.09334e-06
4.59896e-06
-2.81719e-06
7.38289e-06
-3.54852e-06
7.51487e-06
-4.32971e-06
7.35569e-06
-5.17981e-06
7.26623e-06
-6.10621e-06
7.18987e-06
-7.13888e-06
7.10327e-06
-8.29041e-06
7.00543e-06
-9.58839e-06
6.92248e-06
-1.10554e-05
6.86788e-06
-1.27163e-05
6.86815e-06
-1.45915e-05
6.9498e-06
-1.66981e-05
7.14804e-06
-1.90514e-05
7.51513e-06
-2.16597e-05
8.10167e-06
-2.45205e-05
8.96536e-06
-2.76265e-05
1.01631e-05
-3.09445e-05
1.17723e-05
-3.44125e-05
1.39087e-05
-3.79048e-05
1.66772e-05
2.02343e-05
-4.12445e-05
-4.70152e-07
2.67942e-05
-1.30944e-06
-1.50142e-07
-2.13114e-06
5.42058e-06
-2.86362e-06
8.1153e-06
-3.60584e-06
8.25703e-06
-4.39919e-06
8.14896e-06
-5.25605e-06
8.12303e-06
-6.18635e-06
8.12012e-06
-7.20514e-06
8.12203e-06
-8.33217e-06
8.13244e-06
-9.58275e-06
8.17304e-06
-1.09759e-05
8.26106e-06
-1.25274e-05
8.41967e-06
-1.42518e-05
8.67418e-06
-1.61602e-05
9.05644e-06
-1.82539e-05
9.60884e-06
-2.05317e-05
1.03795e-05
-2.29844e-05
1.14182e-05
-2.55851e-05
1.27638e-05
-2.82968e-05
1.4484e-05
-3.10466e-05
1.66586e-05
-3.37379e-05
1.93685e-05
2.27068e-05
-3.62104e-05
-4.47645e-07
2.72418e-05
-1.31283e-06
7.14965e-07
-2.1394e-06
6.24711e-06
-2.8713e-06
8.84716e-06
-3.61233e-06
8.99801e-06
-4.4038e-06
8.94037e-06
-5.25332e-06
8.9725e-06
-6.16777e-06
9.03453e-06
-7.15896e-06
9.1132e-06
-8.2425e-06
9.21597e-06
-9.42967e-06
9.36019e-06
-1.07336e-05
9.56502e-06
-1.21646e-05
9.85066e-06
-1.37313e-05
1.02409e-05
-1.54377e-05
1.07629e-05
-1.72804e-05
1.14515e-05
-1.92493e-05
1.23484e-05
-2.13253e-05
1.34942e-05
-2.34822e-05
1.49207e-05
-2.56676e-05
1.66694e-05
-2.78141e-05
1.88051e-05
-2.98328e-05
2.13871e-05
2.44749e-05
-3.16008e-05
-4.1545e-07
2.76572e-05
-1.29297e-06
1.59245e-06
-2.11295e-06
7.06708e-06
-2.83593e-06
9.57014e-06
-3.56842e-06
9.73045e-06
-4.34696e-06
9.71889e-06
-5.17532e-06
9.80084e-06
-6.06144e-06
9.92066e-06
-7.0134e-06
1.00652e-05
-8.04095e-06
1.02436e-05
-9.15352e-06
1.04728e-05
-1.03598e-05
1.07714e-05
-1.16658e-05
1.11567e-05
-1.30751e-05
1.16502e-05
-1.45865e-05
1.22743e-05
-1.6191e-05
1.30561e-05
-1.78751e-05
1.40325e-05
-1.96151e-05
1.52342e-05
-2.13792e-05
1.66848e-05
-2.31196e-05
1.84098e-05
-2.47666e-05
2.04521e-05
-2.62393e-05
2.28597e-05
2.5677e-05
-2.74414e-05
-3.74678e-07
2.80319e-05
-1.24795e-06
2.46574e-06
-2.04937e-06
7.8685e-06
-2.75635e-06
1.02771e-05
-3.47137e-06
1.04454e-05
-4.22725e-06
1.04748e-05
-5.02543e-06
1.0599e-05
-5.87212e-06
1.07674e-05
-6.77381e-06
1.0967e-05
-7.73787e-06
1.12077e-05
-8.77045e-06
1.15054e-05
-9.87651e-06
1.18774e-05
-1.10578e-05
1.2338e-05
-1.23138e-05
1.29063e-05
-1.36411e-05
1.36016e-05
-1.50288e-05
1.44438e-05
-1.64558e-05
1.54595e-05
-1.79007e-05
1.66792e-05
-1.93318e-05
1.81159e-05
-2.07e-05
1.97781e-05
-2.19398e-05
2.1692e-05
-2.2981e-05
2.39009e-05
2.64408e-05
-2.37449e-05
-3.25376e-07
2.83572e-05
-1.17777e-06
3.31816e-06
-1.94814e-06
8.63888e-06
-2.63194e-06
1.09609e-05
-3.32073e-06
1.11342e-05
-4.04465e-06
1.11987e-05
-4.80577e-06
1.13601e-05
-5.60722e-06
1.15688e-05
-6.45443e-06
1.18142e-05
-7.35192e-06
1.21053e-05
-8.30332e-06
1.24569e-05
-9.30768e-06
1.28818e-05
-1.03672e-05
1.33974e-05
-1.14781e-05
1.40172e-05
-1.2635e-05
1.47585e-05
-1.38253e-05
1.5634e-05
-1.50313e-05
1.66656e-05
-1.62237e-05
1.78717e-05
-1.73738e-05
1.9266e-05
-1.8441e-05
2.08452e-05
-1.93639e-05
2.26148e-05
-2.00726e-05
2.46097e-05
2.68784e-05
-2.05103e-05
-2.63527e-07
2.86208e-05
-1.08387e-06
4.13851e-06
-1.81494e-06
9.36998e-06
-2.46762e-06
1.16135e-05
-3.12257e-06
1.17892e-05
-3.8079e-06
1.1884e-05
-4.52447e-06
1.20767e-05
-5.27381e-06
1.23182e-05
-6.05887e-06
1.25994e-05
-6.88429e-06
1.29308e-05
-7.75023e-06
1.33228e-05
-8.65756e-06
1.37891e-05
-9.60369e-06
1.43436e-05
-1.0584e-05
1.49974e-05
-1.15857e-05
1.57602e-05
-1.26008e-05
1.66491e-05
-1.36098e-05
1.76745e-05
-1.45934e-05
1.88553e-05
-1.55198e-05
2.01924e-05
-1.63473e-05
2.16726e-05
-1.70257e-05
2.32932e-05
-1.74982e-05
2.50821e-05
2.7092e-05
-1.77119e-05
-1.80463e-07
2.88013e-05
-9.70599e-07
4.92866e-06
-1.65759e-06
1.0057e-05
-2.27086e-06
1.22268e-05
-2.88287e-06
1.24012e-05
-3.52019e-06
1.25214e-05
-4.18319e-06
1.27398e-05
-4.87261e-06
1.30077e-05
-5.59174e-06
1.33186e-05
-6.34194e-06
1.3681e-05
-7.12311e-06
1.41041e-05
-7.93185e-06
1.45979e-05
-8.7671e-06
1.51788e-05
-9.61961e-06
1.58499e-05
-1.04835e-05
1.66241e-05
-1.13463e-05
1.75119e-05
-1.21932e-05
1.85214e-05
-1.29964e-05
1.96585e-05
-1.37357e-05
2.09318e-05
-1.43844e-05
2.23213e-05
-1.48966e-05
2.38054e-05
-1.52079e-05
2.53933e-05
2.71692e-05
-1.52853e-05
-5.98005e-08
2.88611e-05
-8.42541e-07
5.71144e-06
-1.48669e-06
1.07011e-05
-2.05282e-06
1.27929e-05
-2.61436e-06
1.29628e-05
-3.19639e-06
1.31035e-05
-3.79924e-06
1.33427e-05
-4.42276e-06
1.36313e-05
-5.06793e-06
1.39639e-05
-5.73574e-06
1.43489e-05
-6.42559e-06
1.4794e-05
-7.13405e-06
1.53064e-05
-7.85533e-06
1.59001e-05
-8.58648e-06
1.6581e-05
-9.31833e-06
1.73559e-05
-1.00396e-05
1.82331e-05
-1.07336e-05
1.92155e-05
-1.1385e-05
2.03099e-05
-1.19747e-05
2.15214e-05
-1.24772e-05
2.28237e-05
-1.28588e-05
2.4187e-05
-1.30778e-05
2.56122e-05
2.71805e-05
-1.30892e-05
9.0664e-08
2.87704e-05
-7.02646e-07
6.50481e-06
-1.31092e-06
1.13093e-05
-1.82879e-06
1.33108e-05
-2.3331e-06
1.34671e-05
-2.8573e-06
1.36277e-05
-3.39448e-06
1.38799e-05
-3.946e-06
1.41829e-05
-4.51198e-06
1.453e-05
-5.08965e-06
1.49267e-05
-5.68034e-06
1.53848e-05
-6.28186e-06
1.5908e-05
-6.88871e-06
1.65069e-05
-7.49662e-06
1.71888e-05
-8.09237e-06
1.79516e-05
-8.67156e-06
1.88123e-05
-9.2225e-06
1.97664e-05
-9.72941e-06
2.08167e-05
-1.017e-05
2.1962e-05
-1.05369e-05
2.31905e-05
-1.08102e-05
2.44602e-05
-1.09508e-05
2.57528e-05
2.71512e-05
-1.09216e-05
2.62656e-07
2.85078e-05
-5.56923e-07
7.32444e-06
-1.14214e-06
1.18945e-05
-1.61018e-06
1.37789e-05
-2.05795e-06
1.39149e-05
-2.52555e-06
1.40954e-05
-2.99913e-06
1.43536e-05
-3.47769e-06
1.46616e-05
-3.9623e-06
1.50147e-05
-4.45196e-06
1.54165e-05
-4.94434e-06
1.58772e-05
-5.43544e-06
1.63992e-05
-5.92561e-06
1.69971e-05
-6.40143e-06
1.76646e-05
-6.86435e-06
1.84144e-05
-7.2983e-06
1.92462e-05
-7.69724e-06
2.01653e-05
-8.04357e-06
2.1163e-05
-8.32915e-06
2.22475e-05
-8.54409e-06
2.34053e-05
-8.67685e-06
2.45928e-05
-8.71461e-06
2.57904e-05
2.70539e-05
-8.61739e-06
4.35613e-07
2.80722e-05
-4.17029e-07
8.17709e-06
-9.92546e-07
1.247e-05
-1.41359e-06
1.41999e-05
-1.81695e-06
1.43183e-05
-2.23424e-06
1.45127e-05
-2.65293e-06
1.47724e-05
-3.07014e-06
1.50789e-05
-3.48242e-06
1.54271e-05
-3.8904e-06
1.58246e-05
-4.29239e-06
1.62793e-05
-4.68752e-06
1.67943e-05
-5.06579e-06
1.73754e-05
-5.4232e-06
1.80219e-05
-5.75308e-06
1.87443e-05
-6.04632e-06
1.95394e-05
-6.2896e-06
2.04085e-05
-6.47604e-06
2.13494e-05
-6.59327e-06
2.23646e-05
-6.62867e-06
2.34407e-05
-6.57577e-06
2.45398e-05
-6.44465e-06
2.56592e-05
2.68104e-05
-6.20118e-06
6.22728e-07
2.74496e-05
-2.82478e-07
9.08228e-06
-8.69296e-07
1.30569e-05
-1.2597e-06
1.45903e-05
-1.63122e-06
1.46898e-05
-2.01391e-06
1.48955e-05
-2.39294e-06
1.51516e-05
-2.76421e-06
1.54503e-05
-3.12548e-06
1.57884e-05
-3.47502e-06
1.61742e-05
-3.81036e-06
1.66148e-05
-4.12774e-06
1.71118e-05
-4.42049e-06
1.76681e-05
-4.68459e-06
1.8286e-05
-4.90945e-06
1.89691e-05
-5.08521e-06
1.97151e-05
-5.19678e-06
2.052e-05
-5.24255e-06
2.13951e-05
-5.19021e-06
2.23122e-05
-5.04864e-06
2.32991e-05
-4.80282e-06
2.42939e-05
-4.4538e-06
2.53102e-05
2.6348e-05
-3.99147e-06
8.13172e-07
2.66364e-05
-1.61634e-07
1.00571e-05
-7.74964e-07
1.36702e-05
-1.14822e-06
1.49635e-05
-1.50975e-06
1.50514e-05
-1.88116e-06
1.5267e-05
-2.23863e-06
1.55091e-05
-2.58659e-06
1.57983e-05
-2.92076e-06
1.61227e-05
-3.23919e-06
1.64928e-05
-3.53719e-06
1.69129e-05
-3.81298e-06
1.73876e-05
-4.05988e-06
1.7915e-05
-4.2664e-06
1.84925e-05
-4.42913e-06
1.91317e-05
-4.5253e-06
1.98112e-05
-4.55901e-06
2.05536e-05
-4.49942e-06
2.13354e-05
-4.34316e-06
2.21559e-05
-4.06646e-06
2.30223e-05
-3.66925e-06
2.38966e-05
-3.12837e-06
2.47692e-05
2.56759e-05
-2.45637e-06
9.86222e-07
2.56502e-05
-5.5214e-08
1.10986e-05
-6.99124e-07
1.43142e-05
-1.07288e-06
1.53373e-05
-1.44269e-06
1.54212e-05
-1.81306e-06
1.56374e-05
-2.17061e-06
1.58667e-05
-2.51337e-06
1.61411e-05
-2.84116e-06
1.64505e-05
-3.15204e-06
1.68038e-05
-3.4434e-06
1.72044e-05
-3.70854e-06
1.76528e-05
-3.94218e-06
1.81487e-05
-4.13761e-06
1.86879e-05
-4.27834e-06
1.92724e-05
-4.36288e-06
1.98956e-05
-4.36552e-06
2.05562e-05
-4.27244e-06
2.12422e-05
-4.07862e-06
2.1962e-05
-3.75241e-06
2.2696e-05
-3.28563e-06
2.34298e-05
-2.6612e-06
2.41447e-05
2.48858e-05
-1.87109e-06
1.11381e-06
2.45364e-05
2.6548e-08
1.21859e-05
-6.33921e-07
1.49747e-05
-1.0149e-06
1.57183e-05
-1.3994e-06
1.58058e-05
-1.77432e-06
1.60124e-05
-2.13817e-06
1.62307e-05
-2.48517e-06
1.64882e-05
-2.81841e-06
1.67839e-05
-3.13598e-06
1.71215e-05
-3.43448e-06
1.75029e-05
-3.70868e-06
1.79271e-05
-3.95284e-06
1.83928e-05
-4.15841e-06
1.88934e-05
-4.3148e-06
1.94288e-05
-4.40848e-06
1.99892e-05
-4.42887e-06
2.05765e-05
-4.36577e-06
2.1179e-05
-4.19521e-06
2.17913e-05
-3.89629e-06
2.2397e-05
-3.45796e-06
2.29914e-05
-2.8575e-06
2.35442e-05
2.41131e-05
-2.08483e-06
1.17918e-06
2.33572e-05
7.45348e-08
1.32907e-05
-5.6595e-07
1.56152e-05
-9.49257e-07
1.61016e-05
-1.34349e-06
1.62001e-05
-1.71939e-06
1.63884e-05
-2.08036e-06
1.65917e-05
-2.43029e-06
1.68382e-05
-2.76692e-06
1.71206e-05
-3.08965e-06
1.74443e-05
-3.39446e-06
1.78078e-05
-3.67713e-06
1.82098e-05
-3.93181e-06
1.86475e-05
-4.15199e-06
1.91136e-05
-4.32648e-06
1.96032e-05
-4.44767e-06
2.01104e-05
-4.50261e-06
2.06313e-05
-4.48121e-06
2.11575e-05
-4.36451e-06
2.16745e-05
-4.13167e-06
2.2164e-05
-3.77952e-06
2.26391e-05
-3.27994e-06
2.30446e-05
2.34495e-05
-2.61628e-06
1.18828e-06
2.2169e-05
1.07486e-07
1.43715e-05
-4.94163e-07
1.62168e-05
-8.63738e-07
1.64713e-05
-1.25013e-06
1.65865e-05
-1.61184e-06
1.67501e-05
-1.9573e-06
1.69372e-05
-2.29951e-06
1.71804e-05
-2.62638e-06
1.74475e-05
-2.93872e-06
1.77567e-05
-3.23621e-06
1.81054e-05
-3.5148e-06
1.84884e-05
-3.76813e-06
1.89009e-05
-3.99005e-06
1.93356e-05
-4.17306e-06
1.97862e-05
-4.31148e-06
2.02488e-05
-4.39431e-06
2.07141e-05
-4.41152e-06
2.11747e-05
-4.34369e-06
2.16066e-05
-4.18482e-06
2.20051e-05
-3.92362e-06
2.23779e-05
-3.53073e-06
2.26518e-05
2.29312e-05
-3.0123e-06