/*--------------------------------*- C++ -*----------------------------------*\
  =========                 |
  \\      /  F ield         | OpenFOAM: The Open Source CFD Toolbox
   \\    /   O peration     | Website:  https://openfoam.org
    \\  /    A nd           | Version:  13
     \\/     M anipulation  |
\*---------------------------------------------------------------------------*/
FoamFile
{
    format      ascii;
    class       volScalarField;
    location    "0.55";
    object      rho;
}
// * * * * * * * * * * * * * * * * * * * * * * * * * * * * * * * * * * * * * //

dimensions      [1 -3 0 0 0 0 0];

internalField   nonuniform List<scalar> 
2268
(
1000
1000
1000
1000
1000
1000
1000
1000
1000
1000
1000
1000
1000
1000
1000
1000
1000
1000
979.378
906.012
933.098
998.685
998.685
1000
1000
1000
1000
1000
1000
1000
1000
1000
1000
1000
1000
1000
1000
1000
1000
1000
1000
999.741
937.609
921.489
984.871
998.685
1000
1000
1000
1000
1000
1000
1000
1000
1000
1000
1000
1000
1000
1000
1000
1000
1000
1000
1000
998.492
921.489
958.686
998.683
1000
1000
1000
1000
1000
1000
1000
1000
1000
1000
1000
1000
1000
1000
1000
1000
1000
1000
1000
1000
930.491
951.688
997.379
1000
1000
1000
1000
1000
1000
1000
1000
1000
1000
1000
1000
1000
1000
1000
1000
1000
1000
1000
1000
992.011
995.168
999.265
1000
1000
1000
1000
1000
1000
999.999
999.999
999.999
1000
1000
1000
1000
1000
1000
1000
1000
1000
1000
1000
1000
999.989
999.79
1000
1000
1000
999.998
999.997
999.986
999.967
999.972
999.986
999.995
999.998
999.999
1000
1000
1000
1000
1000
1000
1000
1000
1000
1000
999.79
1000
999.995
999.946
999.878
999.713
998.93
998.846
999.279
999.675
999.875
999.954
999.982
999.992
999.997
1000
1000
1000
1000
1000
1000
1000
1000
999.792
253.479
202.766
175.952
174.934
52.6977
39.6805
290.848
295.005
281.468
369.098
531.4
585.145
611.119
649.591
700.057
737.729
746.941
753.186
665.255
570.409
202.761
212.786
49.7476
26.0143
45.7668
231.073
27.0924
3.98554
1.00934
2.49151
50.4809
133.043
210.777
301.273
449.516
640.946
770.591
770.38
710.38
801.341
927.986
98.5416
25.609
74.3356
85.0339
1.06403
1.00567
1.00412
1.00904
1.02136
1.06592
1.22816
1.87514
4.64942
99.8092
533.558
780.089
955.055
999.976
999.976
54.3939
26.0671
75.8612
6.01462
1.00497
1.0029
1.0031
1.00398
1.00851
1.01952
1.06435
1.25416
2.01077
5.46981
237.345
784.133
999.976
999.976
999.976
507.078
28.381
69.866
1.65632
1.00294
1.00276
1.00281
1.00306
1.00422
1.00848
1.01926
1.06271
1.26706
2.52052
131.769
788.157
999.976
999.976
999.976
999.975
109.316
62.6597
1.50888
1.00276
1.00275
1.00275
1.00281
1.00318
1.0045
1.0092
1.02411
1.08334
1.75258
83.4933
792.99
999.851
999.922
999.975
999.972
208.952
44.1228
1.18039
1.00278
1.00275
1.00275
1.00296
1.00634
1.01874
1.02457
1.03743
1.03361
1.19635
45.9895
795.862
999.668
999.782
999.973
985.071
298.822
22.2931
1.00506
1.00283
1.00275
1.003
1.00403
1.03416
1.0583
1.03962
1.02882
1.02303
1.02945
27.8324
797.953
974.562
893.995
766.838
671.516
695.504
772.699
858.065
910.866
950.155
980.512
996.086
999.19
1000
1000
1000
999.998
999.998
1000
1000
1000
1000
1000
999.968
292.023
148.458
34.5587
29.7834
88.936
166.855
204.52
232.127
286.664
374.64
491.609
624.923
772.085
909.851
1000
1000
1000
1000
1000
1000
1000
1000
999.999
1
1
1.00002
1
1
1
1
1
1
1
1.00001
10.8385
67.7148
157.512
307.89
501.82
745.62
974.373
1000
999.996
999.999
999.997
999.991
1
1.00001
1.00021
1
1
1
1
1
1
1
1
1.00001
1.00002
1.00002
1.0002
18.0131
56.1029
171.413
357.427
593.229
816.253
911.835
930.315
1
1
1
1
1
1
1
1
1
1.00003
1.00009
1.00002
1.00002
1.00002
1.00002
1.00014
1.00057
1.00114
1.00604
3.62147
42.3764
109.263
176.801
1
1
1
1
1
1
1
1
1.00001
1.00037
1.0005
1.00039
1.00004
1.00004
1.01496
1.02919
1.01985
1.01016
1.01018
1.01029
1.01051
1.01037
1.01016
1
1
1
1
1
1
1
1
1.00003
1.00044
1.0005
1.0005
1.0002
1.00005
1.00006
1.02553
1.022
1.01137
1.02594
1.03115
1.01564
1.0324
1.02248
1
1
1
1
1
1
1
1
1
1.00011
1.00037
1.0001
1.00002
1.00014
1.00057
1
1
1
1
1.00011
1.00415
1.17729
1.36894
1
1
1
1
1
1
1
1
1
1
1
1
1
1.00056
1.0011
1.00013
1
1
1
1.00048
1.01897
1.15714
1.42086
1
1
1
1
1
1
1
1
1
1
1
1
1
1.0002
1.00069
1.00008
1
1
1
1.00125
1.01003
1.00015
1.17038
1
1
1
1
1
1
1
1
1
1
1
1
1.00001
1
1
1
1
1
1
1
1
1
1.01344
1
1
1
1
1
1
1
1
1
1
1
1
1
1
1
1
1
1
1
1
1
1
1.00165
1
1
1
1
1
1
1
1
1
1
1
1
1
1
1
1
1
1
1
1
1
1
1
1
1
1
1
1
1
1
1
1
1
1
1
1
1
1
1
1
1
1
1
1
1
1
1
1
1
1
1
1
1
1
1
1
1
1
1
1
1
1
1
1
1
1
1
1
1
1
1
1
1
1
1
1
1
1
1
1
1
1
1
1
1
1
1
1
1
1
1
1
1
1
1
1
1
1
1
1
1
1
1
1
1
1
1
1
1
1
1
1
1
1
1
1
1
1
1
1
1
1
1
1
1
1
1
1
1
1
1
1
1
1
1
1
1
1
1
1
1
1
1
1
1
1
1
1
1
1
1
1
1
1
1
1
1
1
1
1
1
1
1
1
1
1
1
1
1
1
1
1
1
1
1
1
1
1
1
1
1
1
1
1
1
1
1
1
1
1
1
1
1
1
1
1
1
1
1
1
1
1
1
1
1
1
1
1
1
1
1
1
1
1
1
1
1
1
1
1
1
1
1
1
1
1
1
1
1
1
1
1
1
1
1
1
1
1
1
1
1
1
1
1
1
1
1
1
1
1
1
1
1
1
1
1
1
1
1
1
1
1
1
1
1
1
1
1
1
1
1
1
1
1
1
1
1
1
1
1
1
1
1
1
1
1
1
1
1
1
1
1
1
1
1
1
1
1
1
1
1
1
1
1
1
1
1
1
1
1
1
1
1
1
1
1
1
1
1
1
1
1
1
1
1
1
1
1
1
1
1
1
1
1
1
1
1
1
1
1
1
1
1
1
1
1
1
1
1
1
1
1
1
1
1
1
1
1
1
1
1
1
1
1
1
1
1
1
1
1
1
1
1
1
1
1
1
1
1
1
1
1
1
1
1
1
1
1
1
1
1
1
1
1
1
1
1
1
1
1
1
1
1
1
1
1
1
1
1
1
1
1
1
1
1
1
1
1
1
1
1
1
1
1
1
1
1
1
1
1
1
1
1
1
1
1
1
1
1
1
1
1
1
1
1
1
1
1
1
1
1
1
1
1
1
1
1
1
1
1
1
1
1
1
1
1
1
1
1
1
1
1
1
1
1
1
1
1
1
1
1
1
1
1
1
1
1
1
1
1
1
1
1
1
1
1
1
1
1
1
1
1
1
1
1
1
1
1
1
1
1
1
1
1
1
1
1
1
1
1
1
1
1
1
1
1
1
1
1
1
1
1
1
1
1
1
1
1
1
1
1
1
1
1
1
1
1
1
1
1
1
1
1
1
1
1
1
1
1
1
1
1
1
1
1
1
1
1
1
1
1
1
1
1
1
1
1
1
1
1
1
1
1
1
1
1
1
1
1
1
1
1
1
1
1
1
1
1
1
1
1
1
1
1
1
1
1
1
1
1
1
1
1
1
1
1
1
1
1
1
1
1
1
1
1
1
1
1
1
1
1
1
1
1
1
1
1
1
1
1
1
1
1
1
1
1
1
1
1
1
1
1
1
1
1
1
1
1
1
1
1
1
1
1
1
1
1
1
1
1
1
1
1
1
1
1
1
1
1
1
1
1
1
1
1
1
1
1
1
1
999.987
999.994
999.97
999.694
999.999
999.996
999.991
999.984
999.991
999.991
999.947
999.9
939.33
947.678
964.741
986.763
231.559
283.187
363.119
475.537
1.00961
1.00904
1.00884
1.0099
1.00919
1.0088
1.00883
1.0088
1.39315
1.25238
1.03029
1.00927
1.42093
1.42093
1.42091
1.20017
1.42087
1.42095
1.42093
1.16754
1.42062
1.42082
1.37459
1.37272
1.0631
1.10767
1
1.02221
1
1
1
1
1
1
1
1
1
1
1
1
1
1
1
1
1
1
1
1
1
1
1
1
1
1
1
1
1
1
1
1
1
1
1
1
1
1
1
1
1
1
1
1
1
1
1
1
1
1
1
1
1
1
1
1
1
1
1
1
1
1
1
1
1
1
1
1
1
1
1
1
1
1
1
1
1
1
1
1
1
1
1
1
1
1
1
1
1
1
1
1
1
1
1
1
1
1
1
1
1
1
1
1
1
1
1
1
1
1
1
1
1
1
1
1
1
1
1
1
999.666
999.801
999.97
864.09
278.554
12.8919
2.37371
1.00287
1.00283
1.00326
1.0169
1.09353
1.31726
1.49562
1.0251
1.01618
1.01617
9.51618
828.61
999.972
999.97
999.969
688.292
97.4943
17.1262
2.56537
1.00287
1.00287
1.0032
1.0632
1.80877
2.82641
3.01507
1.47823
1.02445
1.0162
1.02658
858.731
999.929
999.967
999.969
531.813
3.42633
23.9099
8.46031
1.00287
1.00309
1.00473
1.00699
1.07564
3.00119
3.01507
2.95179
1.13653
1.03151
56.3871
896.163
997.815
999.527
999.967
508.808
3.42633
11.6549
12.9014
5.88381
1.7935
1.05415
1.0148
1.04551
2.23427
3.01507
2.96845
1.45002
1.07943
257.752
926.101
684.496
954.478
999.925
702.565
3.41254
4.15911
7.11732
6.32949
4.26598
2.89261
1.93595
2.5782
3.04955
2.98341
2.38119
1.64606
1.26897
447.502
936.509
80.9566
390.239
950.902
848.914
65.2968
5.47861
2.03993
1.94421
1.89179
1.97349
3.01786
3.04955
3.04318
1.88279
2.62472
2.42982
1.99676
621.567
939.616
1.00929
1.06787
319.662
915.552
915.705
501.319
1.94553
1.89815
1.87708
1.86266
1.8765
2.41187
1.62315
1.61905
4.33562
30.1249
118.518
827.167
940.458
1.01324
1.01356
1.03231
213.169
906.321
905.888
611.513
243.375
1.92583
1.78268
1.66636
1.62265
1.61993
1.62099
1.62099
331.44
812.483
940.458
940.458
1.01492
1.0206
1.02097
1.03645
98.2887
630.69
735.155
735.155
559.614
214.89
1.80288
1.66675
1.62265
1.61906
219.198
860.912
938.024
940.212
940.458
1.07432
1.08631
1.12191
1.11633
1.10971
29.5461
287.558
620.597
655.677
655.677
369.417
206.708
365.079
684.885
821.57
825.46
726.548
747.245
917.365
1.27779
1.2177
1.37251
1.36579
1.10637
1.05075
1.06105
51.6848
263.131
446.434
611.441
719.483
733.913
728.874
551.185
210.533
204.441
275.51
870.757
1.22566
1.34687
1.33243
1.03407
1.01069
1.02713
4.38892
22.9943
27.7882
85.422
291.863
566.49
745.156
600.436
326.902
222.605
204.442
356.707
915.669
1
1.00022
1.00122
1.00012
1.00118
1.12325
1.81154
1.91229
3.78056
37.6599
437.841
711.436
748.773
811.975
833.903
836.003
609.192
778.934
940.531
1
1
1
1.00001
1.00021
1.00971
1.03836
1.76067
5.62087
5.81737
2.25718
1.84294
24.2159
385.589
815.765
940.079
940.233
940.52
940.52
1
1
1
1
1.00001
1.00019
1.00212
1.09891
2.25952
3.26508
2.5745
1.80393
1.83374
2.23206
135.105
861.255
940.302
940.416
912.235
1
1
1
1
1
1.00001
1.00016
1.0012
1.05854
1.6626
1.88049
1.80143
1.8076
1.85451
2.29684
309.105
882.359
938.197
738.948
1
1
1
1
1
1
1.00001
1.00008
1.00157
1.03387
1.00487
1.76586
2.92009
2.56155
11.4163
26.4636
421.916
908.223
739.168
1
1
1
1
1
1
1
1
1.00018
1.00011
1.00135
1.21194
2.11533
2.22283
4.78265
7.30125
177.235
750.374
821.022
1
1
1
1.00001
1.00001
1
1
1
1
1.00003
1.00091
1.02953
1.80883
18.0248
31.2039
30.0925
123.269
623.2
830.81
1
1
1
1
1.00001
1.00026
1.00058
1.00002
1.00001
1.00002
1.00072
1.00536
1.12911
67.7409
248.291
249.228
128.207
226.637
587.681
1
1
1
1
1
1.00067
1.00113
1.00098
1.00001
1.00002
1.00043
1.00511
1.18975
79.694
290.766
290.766
268.304
89.2189
90.3606
1
1
1
1
1
1.00013
1.00069
1.00113
1.00024
1.00008
1.00065
1.01865
1.06729
7.14281
117.537
289.214
288.734
248.889
90.0188
1
1
1
1
1.00001
1.00005
1.0001
1.00114
1.00175
1.00009
1.00035
1.03202
1.17807
1.02237
1.02685
36.7343
238.71
318.243
321.956
1
1
1
1
1
1.00063
1.00148
1.00185
1.00185
1.00009
1.00028
1.02797
1.18084
1.02069
1.01688
1.02188
1.19981
206.932
321.956
1
1
1
1
1
1.00071
1.00185
1.00185
1.00185
1.00069
1.00036
1.02326
1.12824
1.02018
1.01595
1.01508
1.02188
6.5869
321.956
1
1
1
1
1
1.00008
1.00069
1.00185
1.00185
1.00183
1.00045
1.01715
1.04647
1.12241
1.01925
1.01508
1.01509
15.9465
321.436
1
1
1
1
1
1
1
1.00111
1.00185
1.00184
1.00128
1.00589
1.01816
1.1579
1.0851
1.01503
1.01532
12.6156
173.068
1
1
1
1
1.00003
1.00017
1.00017
1.00024
1.00161
1.0013
1.00095
1.00024
1.00147
1.15795
1.10407
1.01518
1.01684
42.9079
41.1617
1
1
1
1
1.00002
1.00015
1.00026
1.00044
1.00059
1.00038
1.00026
1.0002
1.00483
1.15728
1.04053
1.01521
3.43519
54.5443
100.704
1
1
1
1
1.00001
1.00001
1.00018
1.00044
1.00022
1.00002
1.00016
1.00018
1.06287
1.15033
1.00811
1.01027
7.11011
7.67605
161.155
1
1
1
1
1
1.00002
1.00008
1.00013
1.00002
1.00002
1.00032
1.00032
1.09342
1.04451
1.00646
2.07926
8.01348
3.65501
161.155
1
1
1
1
1.00001
1.00001
1.00002
1.00002
1.00002
1.00002
1.00026
1.00003
1.05268
1.01093
1.00608
5.21578
8.04267
3.56662
161.155
1
1
1
1
1.00001
1.00001
1.0003
1.00126
1.00066
1.00002
1.00002
1.00002
1.00622
1.00639
1.00579
6.01621
8.05332
2.95603
156.832
1
1
1
1
1
1
1.00018
1.00189
1.0019
1.0012
1.00064
1.0371
1.05717
1.01399
1.00404
4.93894
7.96985
2.88153
113.578
1
1
1
1
1
1
1.00006
1.00067
1.0019
1.00002
1.03675
1.06849
1.05754
1.00039
1.00131
6.1513
3.43706
2.87539
113.484
1
1
1
1
1
1
1.00002
1.00006
1.00044
1.00001
1.01599
1.03276
1.00882
1
1.3152
6.41075
2.89732
2.88146
105.884
1
1
1
1
1
1
1
1
1
1.00001
1
1.00003
1
1
1.79804
6.48421
4.09814
2.87537
103.128
1
1
1
1
1
1
1
1
1
1
1
1
1
1
2.62488
6.59442
6.03509
2.88597
126.56
1
1
1
1
1
1
1
1
1
1
1
1
1
1
1.53228
6.66001
6.66001
3.29506
137.561
1
1
1
1
1
1
1
1
1
1
1
1
1
1
1
4.58051
6.68884
5.15786
137.579
1
1
1
1
1
1
1
1
1
1
1
1
1
1
1
1
4.57671
4.31918
137.572
1
1
1
1
1
1
1
1
1
1
1
1
1
1
1
1
1.18965
1.23145
108.708
)
;

boundaryField
{
    leftWall
    {
        type            calculated;
        value           nonuniform List<scalar> 
50
(
1000
1000
1000
1000
1000
1000
1000
1000
974.562
292.023
1
1
1
1
1
1
1
1
1
1
1
1
1
1
1
1
1
1
1
1
1
1
1
1
1
1
1
1
1
1
1
1
1
1
1
1
1
1
1
1
)
;
    }
    rightWall
    {
        type            calculated;
        value           nonuniform List<scalar> 
50
(
665.255
770.38
780.089
784.133
788.157
792.99
795.862
797.953
828.61
858.731
896.163
926.101
936.509
939.616
940.458
940.458
940.458
917.365
870.757
915.669
940.531
940.52
912.235
738.948
739.168
821.022
830.81
587.681
90.3606
90.0188
321.956
321.956
321.956
321.436
173.068
41.1617
100.704
161.155
161.155
161.155
156.832
113.578
113.484
105.884
103.128
126.56
137.561
137.579
137.572
108.708
)
;
    }
    lowerWall
    {
        type            calculated;
        value           nonuniform List<scalar> 
62
(
1000
1000
1000
1000
1000
1000
1000
1000
1000
1000
1000
1000
1000
1000
1000
1000
1000
1000
979.378
906.012
933.098
998.685
998.685
998.685
998.685
998.683
997.379
999.265
999.79
999.79
999.792
999.987
999.994
999.97
999.694
253.479
570.409
710.38
955.055
999.976
999.976
999.851
999.668
253.479
202.766
175.952
174.934
52.6977
39.6805
290.848
295.005
281.468
369.098
531.4
585.145
611.119
649.591
700.057
737.729
746.941
753.186
665.255
)
;
    }
    atmosphere
    {
        type            calculated;
        value           nonuniform List<scalar> 
46
(
1
1
1
1
1
1
1
1
1
1
1
1
1
1
1
1
1
1
1
1
1
1
1
1
1
1
1
1
1
1
1
1
1
1
1
1
1
1
1
1
1
1
1
1
1
108.708
)
;
    }
    defaultFaces
    {
        type            empty;
    }
}


// ************************************************************************* //
