/*--------------------------------*- C++ -*----------------------------------*\
  =========                 |
  \\      /  F ield         | OpenFOAM: The Open Source CFD Toolbox
   \\    /   O peration     | Website:  https://openfoam.org
    \\  /    A nd           | Version:  13
     \\/     M anipulation  |
\*---------------------------------------------------------------------------*/
FoamFile
{
    format      ascii;
    class       surfaceScalarField;
    location    "0.75";
    object      alphaPhi.water;
}
// * * * * * * * * * * * * * * * * * * * * * * * * * * * * * * * * * * * * * //

dimensions      [0 3 -1 0 0 0 0];

internalField   nonuniform List<scalar> 
4432
(
-4.04246e-06
4.04246e-06
-8.42523e-06
4.38277e-06
-1.19772e-05
3.55193e-06
-1.50621e-05
3.08497e-06
-1.73809e-05
2.31874e-06
-1.76585e-05
2.77644e-07
-1.56541e-05
-2.00443e-06
-1.27644e-05
-2.88968e-06
-1.06025e-05
-2.16187e-06
-9.65616e-06
-9.46392e-07
-9.72676e-06
7.06025e-08
-1.05422e-05
8.15485e-07
-1.18403e-05
1.29806e-06
-1.35163e-05
1.67599e-06
-1.54326e-05
1.91629e-06
-1.68493e-05
1.46489e-06
-1.714e-05
7.9106e-07
-1.94803e-05
2.44935e-06
-2.53437e-05
4.9857e-06
-2.83232e-05
2.98798e-06
-2.36938e-05
-4.62077e-06
-1.23291e-05
-1.13564e-05
-1.23243e-05
-5.57854e-06
9.62101e-06
-1.00322e-05
8.83641e-06
-1.32459e-05
6.7656e-06
-1.61502e-05
5.9893e-06
-1.82717e-05
4.4402e-06
-1.84523e-05
4.58287e-07
-1.63578e-05
-4.09896e-06
-1.31836e-05
-6.06384e-06
-1.07384e-05
-4.60709e-06
-9.60875e-06
-2.07604e-06
-9.40735e-06
-1.30802e-07
-9.74236e-06
1.1505e-06
-1.04039e-05
1.95962e-06
-1.13784e-05
2.65045e-06
-1.28876e-05
3.42548e-06
-1.54223e-05
4.00018e-06
-1.88236e-05
4.66499e-06
-2.27446e-05
6.47001e-06
-2.42528e-05
6.81567e-06
-2.19593e-05
5.00051e-07
-1.61887e-05
-1.00725e-05
-8.58836e-06
-1.88373e-05
-2.10211e-05
-4.88454e-06
1.45055e-05
-8.70813e-06
1.266e-05
-1.19266e-05
9.98404e-06
-1.53055e-05
9.36826e-06
-1.80381e-05
7.1728e-06
-1.85635e-05
9.83688e-07
-1.66993e-05
-5.96318e-06
-1.37603e-05
-9.00288e-06
-1.13533e-05
-7.01405e-06
-1.01519e-05
-3.27748e-06
-9.92202e-06
-3.60647e-07
-1.01042e-05
1.33269e-06
-1.02919e-05
2.14732e-06
-1.02549e-05
2.61345e-06
-1.00905e-05
3.2611e-06
-1.04863e-05
4.39612e-06
-1.20001e-05
6.18952e-06
-1.31163e-05
8.16471e-06
-1.24119e-05
6.4333e-06
-9.95986e-06
-2.03253e-06
-6.56895e-06
-1.35439e-05
-2.98076e-06
-2.33065e-05
-2.40722e-05
-3.54623e-06
1.80518e-05
-6.71279e-06
1.58265e-05
-9.76193e-06
1.30332e-05
-1.28344e-05
1.24407e-05
-1.50939e-05
9.43232e-06
-1.56314e-05
1.52121e-06
-1.45631e-05
-7.03148e-06
-1.30352e-05
-1.05308e-05
-1.17303e-05
-8.31894e-06
-1.09228e-05
-4.085e-06
-1.07794e-05
-5.0403e-07
-1.10305e-05
1.58375e-06
-1.12507e-05
2.36755e-06
-1.10414e-05
2.40415e-06
-1.02082e-05
2.42782e-06
-8.86579e-06
3.05375e-06
-7.164e-06
4.48773e-06
-4.88206e-06
5.88758e-06
-2.02073e-06
3.74787e-06
5.41909e-07
-4.6794e-06
1.4383e-06
-1.51709e-05
1.39453e-06
-2.32627e-05
-2.26825e-05
-1.78977e-06
1.98415e-05
-3.80928e-06
1.78461e-05
-5.997e-06
1.52209e-05
-7.86949e-06
1.43132e-05
-8.81103e-06
1.03739e-05
-8.99979e-06
1.70997e-06
-9.31386e-06
-6.71741e-06
-1.02863e-05
-9.55829e-06
-1.12668e-05
-7.33845e-06
-1.16419e-05
-3.70996e-06
-1.18098e-05
-3.36051e-07
-1.20698e-05
1.84373e-06
-1.22504e-05
2.54809e-06
-1.19991e-05
2.15292e-06
-1.10972e-05
1.52592e-06
-9.46247e-06
1.419e-06
-6.76224e-06
1.78749e-06
-2.82475e-06
1.95013e-06
1.39751e-06
-4.74395e-07
4.29199e-06
-7.57387e-06
4.33628e-06
-1.52152e-05
2.91233e-06
-2.18388e-05
-1.97702e-05
3.73125e-07
1.94684e-05
1.64318e-07
1.80549e-05
-6.66425e-07
1.60516e-05
-1.07703e-06
1.47238e-05
-4.44089e-07
9.74092e-06
-1.68596e-07
1.43448e-06
-2.5075e-06
-4.37849e-06
-6.49323e-06
-5.5723e-06
-1.00692e-05
-3.76209e-06
-1.20684e-05
-1.71088e-06
-1.2851e-05
4.46524e-07
-1.32017e-05
2.19446e-06
-1.3281e-05
2.62737e-06
-1.28406e-05
1.71253e-06
-1.17731e-05
4.58439e-07
-1.01864e-05
-1.67658e-07
-7.88277e-06
-5.16182e-07
-4.57747e-06
-1.35516e-06
-7.67511e-07
-4.28436e-06
2.15692e-06
-1.04983e-05
2.82113e-06
-1.58795e-05
2.43053e-06
-2.14482e-05
-1.73396e-05
2.31419e-06
1.71542e-05
4.00985e-06
1.63592e-05
5.65513e-06
1.44064e-05
7.64872e-06
1.27302e-05
8.99866e-06
8.39098e-06
7.53994e-06
2.8932e-06
2.46277e-06
6.79575e-07
-3.87374e-06
7.62555e-07
-9.0376e-06
1.39918e-06
-1.22466e-05
1.49816e-06
-1.37951e-05
1.99503e-06
-1.43983e-05
2.79762e-06
-1.44043e-05
2.63337e-06
-1.3718e-05
1.02625e-06
-1.23082e-05
-9.51388e-07
-1.05436e-05
-1.93223e-06
-8.47222e-06
-2.58757e-06
-5.91013e-06
-3.91724e-06
-2.99107e-06
-7.20341e-06
-4.56802e-07
-1.30326e-05
9.09039e-07
-1.72453e-05
1.68261e-06
-2.22217e-05
-1.56571e-05
4.32076e-06
1.28335e-05
9.19347e-06
1.14865e-05
1.3045e-05
8.31618e-06
1.52227e-05
7.86632e-06
1.39399e-05
6.93231e-06
8.74734e-06
6.21578e-06
1.65993e-06
6.79968e-06
-4.84676e-06
7.02022e-06
-9.23345e-06
5.78586e-06
-1.20819e-05
4.34662e-06
-1.40311e-05
3.9442e-06
-1.52023e-05
3.96884e-06
-1.55226e-05
2.95363e-06
-1.47914e-05
2.94971e-07
-1.30288e-05
-2.71396e-06
-1.10088e-05
-3.95221e-06
-8.90536e-06
-4.69102e-06
-6.59869e-06
-6.22391e-06
-3.98655e-06
-9.81555e-06
-1.49686e-06
-1.55222e-05
7.74313e-07
-1.95165e-05
2.15316e-06
-2.36006e-05
-1.3504e-05
-1.99449e-05
1.93924e-05
-4.39486e-05
2.40085e-05
-4.51756e-05
1.22965e-06
-3.1294e-05
-1.3881e-05
-1.27929e-05
-1.76601e-05
1.07411e-05
-2.60969e-05
2.38285e-05
-1.73521e-05
1.71836e-05
4.96023e-06
1.21075e-06
1.56896e-05
-3.85981e-05
3.98139e-05
-7.74285e-05
3.88317e-05
-9.76851e-05
2.02579e-05
-0.000107729
1.00469e-05
-0.000110375
2.66823e-06
-9.57647e-05
-1.37234e-05
-5.96393e-05
-3.37784e-05
-2.33452e-05
-3.51728e-05
1.2614e-06
-2.34842e-05
1.1737e-06
-2.69899e-05
4.58157e-05
-3.89341e-05
3.59552e-05
-3.22236e-05
-5.47847e-06
-1.84697e-05
-2.76337e-05
-7.35621e-07
-3.53934e-05
1.93961e-05
-4.62278e-05
3.09458e-05
-2.89011e-05
7.82454e-06
2.53659e-05
-4.0171e-05
6.34996e-05
-8.94713e-05
8.91387e-05
-0.000102821
5.21829e-05
-0.000106645
1.41531e-05
-0.00011111
7.35505e-06
-9.78664e-05
2.19812e-06
-6.68734e-05
-1.6517e-05
-3.42977e-05
-4.47923e-05
-2.5748e-05
-1.46729e-05
-1.72934e-05
-2.63309e-05
-1.57488e-05
-2.06948e-05
6.59488e-05
-2.55812e-05
4.08483e-05
-1.75757e-05
-1.32927e-05
-5.65105e-06
-3.96267e-05
7.14147e-06
-4.8165e-05
2.04146e-05
-5.95002e-05
1.21399e-05
-2.15358e-05
-2.81886e-05
6.65437e-05
-7.87272e-05
0.000114942
-6.00249e-05
6.89924e-05
-2.9583e-05
1.09416e-05
-3.12049e-05
5.06265e-06
-3.48447e-05
4.3438e-07
-2.9525e-05
-1.52854e-05
-2.49047e-05
-5.63981e-05
-2.99654e-06
-0.000108343
1.23818e-06
-4.21711e-05
-8.60932e-06
-2.34514e-06
-2.34028e-05
-9.65958e-06
7.65206e-05
-7.05168e-06
3.84028e-05
-4.97028e-07
-1.42873e-05
7.70423e-06
-4.36445e-05
1.15916e-05
-5.18891e-05
1.10063e-05
-5.89138e-05
-1.34667e-05
2.26332e-06
-5.60114e-05
0.000108876
-5.51968e-05
0.000113089
-1.51821e-05
2.51941e-05
-1.19708e-05
6.15626e-06
-1.15092e-05
1.51702e-06
-1.1195e-05
-4.48395e-06
-5.17721e-05
-1.52917e-05
-1.88343e-05
-0.000212291
6.32421e-06
-0.000190934
2.62326e-05
-0.000135817
3.63577e-06
8.80699e-07
7.86462e-07
1.73486e-06
7.49366e-05
1.04295e-05
2.24252e-05
1.1287e-05
-1.81384e-05
2.21669e-05
-4.4288e-05
1.41492e-05
-4.36913e-05
-5.89088e-06
-3.88891e-05
-4.42917e-05
4.01084e-05
-8.18594e-05
0.000144318
-2.34209e-05
4.94575e-05
-7.86612e-06
8.23295e-06
-5.74089e-06
2.96174e-06
-6.14441e-06
1.3041e-07
-1.24062e-05
-5.36182e-06
-2.89758e-05
-0.000133559
5.10136e-06
-0.000246278
1.29105e-05
-0.000198653
3.21618e-05
-0.000154979
1.84872e-06
2.20169e-07
2.31142e-06
1.04395e-05
6.46502e-05
1.6966e-05
1.06866e-05
2.38142e-05
-2.80009e-05
3.61693e-05
-5.28305e-05
1.63702e-05
-2.39417e-05
-1.85581e-05
-3.99007e-06
-6.27771e-05
8.42612e-05
-3.08128e-05
0.000110823
-6.66738e-06
2.42686e-05
-3.27337e-06
4.30018e-06
-2.41898e-06
1.18335e-06
-2.0811e-06
-1.31626e-06
-2.22517e-05
-7.2333e-06
3.88176e-06
-0.000261963
1.05665e-05
-0.000252867
1.38774e-05
-0.000201823
1.42846e-05
-0.000155359
1.08591e-06
2.39201e-06
3.14796e-06
1.51223e-05
3.72527e-05
2.47379e-05
-2.30549e-06
4.60965e-05
-4.28174e-05
4.48735e-05
-4.84914e-05
1.73607e-05
3.50945e-06
-2.6165e-05
3.9491e-05
-6.65822e-05
0.00012465
-1.65749e-05
5.98102e-05
-3.70532e-06
1.09284e-05
-1.64358e-06
1.94618e-06
-1.50678e-06
4.27349e-07
-1.09705e-06
-2.66669e-06
-3.5557e-06
-8.40596e-05
9.17256e-06
-0.000274621
8.74248e-06
-0.000252483
1.01743e-05
-0.000203082
2.60684e-06
-0.000147684
-1.62214e-06
1.20774e-05
1.25517e-06
1.92957e-05
1.1778e-05
3.82218e-05
-1.81723e-05
4.67892e-05
-4.84775e-05
3.53839e-05
-3.40157e-05
1.58794e-05
2.49993e-05
-2.7301e-05
8.25577e-05
-4.63608e-05
0.000145894
-8.51357e-06
2.17767e-05
-1.44518e-06
3.14111e-06
-5.19021e-07
8.45053e-07
-6.22116e-07
1.67282e-07
-5.30462e-06
-2.08571e-06
2.07544e-06
-0.000201121
6.49011e-06
-0.000279442
5.1754e-06
-0.000251097
5.41097e-06
-0.000202921
-3.18675e-06
-0.000138497
-9.38214e-06
2.22678e-05
-2.15402e-06
1.00691e-06
0
-9.34445e-07
0
-3.22876e-06
0
-5.55269e-06
0
-9.47569e-06
4.83382e-07
-1.60539e-05
2.13499e-06
-2.28354e-05
4.03442e-06
-2.68193e-05
4.55791e-06
-2.78945e-05
4.17612e-06
-2.82977e-05
4.74984e-06
-3.00189e-05
5.66535e-06
-3.21748e-05
6.12472e-06
-3.29723e-05
3.75118e-06
-3.02193e-05
-2.45911e-06
-2.53428e-05
-7.59046e-06
-2.1362e-05
-7.93298e-06
-1.79925e-05
-8.06034e-06
-1.39819e-05
-1.02344e-05
-8.47465e-06
-1.53227e-05
-1.49322e-06
-2.25036e-05
6.63546e-06
-2.76449e-05
1.1818e-05
-2.87834e-05
-2.24243e-05
2.07384e-05
-4.03755e-06
0
-4.66531e-06
0
-5.69569e-06
0
-6.89042e-06
0
-9.29692e-06
0
-1.44085e-05
0
-2.11725e-05
0
-2.73666e-05
6.17852e-09
-3.08836e-05
-1.48723e-06
-3.18543e-05
-2.94045e-06
-3.16886e-05
-1.38621e-06
-3.06506e-05
8.71146e-07
-2.85865e-05
4.55254e-08
-2.62826e-05
-4.79121e-06
-2.25723e-05
-1.02662e-05
-1.94397e-05
-1.00109e-05
-1.78256e-05
-8.55259e-06
-1.61251e-05
-1.10941e-05
-1.24544e-05
-1.91716e-05
-5.51125e-06
-2.94687e-05
4.67945e-06
-3.7762e-05
1.1199e-05
-3.15781e-05
-2.03471e-05
1.17103e-05
-4.49977e-08
0
-1.11112e-07
0
-2.02416e-07
0
-2.52188e-07
0
-3.15365e-07
1.76808e-10
-5.30023e-07
0
-1.23785e-06
0
-2.64102e-06
-4.7999e-08
-6.73118e-06
-3.05429e-07
-1.49332e-05
-1.23421e-06
-2.47549e-05
-2.77026e-06
-3.48098e-05
-3.83881e-07
-4.27032e-05
0
-5.14107e-05
-5.39259e-06
-5.72872e-05
-1.28137e-05
-5.62089e-05
-1.56036e-05
-5.39147e-05
-1.56084e-05
-5.95609e-05
-1.76537e-05
-5.67594e-05
-1.87235e-05
-4.35736e-05
-1.64002e-05
-1.33744e-05
-1.62845e-05
1.52996e-06
-1.8421e-07
-5.73612e-08
1.0988e-05
-3.11171e-09
0
-5.06039e-09
0
-6.05801e-09
1.67465e-10
-5.52095e-09
8.91701e-11
-5.72049e-09
6.73668e-11
-7.0039e-09
1.55056e-11
-7.60938e-09
0
-5.59422e-08
0
-3.6043e-07
-4.0171e-09
-1.57115e-06
-4.64075e-08
-4.30787e-06
-1.89986e-07
-1.71658e-05
-8.21875e-07
-2.92995e-05
-2.42442e-06
-3.71501e-05
-4.05354e-06
-4.8336e-05
-4.46779e-06
-7.368e-05
-4.55922e-06
-9.34077e-05
-8.37549e-06
-9.77302e-05
-1.37188e-05
-5.241e-05
-2.70737e-05
-7.97635e-06
-3.02471e-05
1.38443e-07
-1.63573e-05
1.96402e-07
-2.47507e-07
-1.91023e-07
3.28797e-07
-3.70235e-10
0
-3.72567e-10
0
-2.60238e-10
3.45959e-11
-1.81369e-10
8.86805e-12
-1.23208e-10
2.62735e-12
-1.15613e-10
5.23295e-13
-1.47354e-10
0
-1.65792e-10
0
-4.34233e-09
0
-5.09327e-08
-2.20589e-09
-2.56844e-07
-1.49392e-08
-3.52319e-06
-7.0927e-08
-4.45502e-06
-9.6678e-08
-3.14498e-06
7.47323e-09
-3.75174e-06
9.34552e-10
-6.49734e-06
-1.46476e-06
-1.79411e-06
-1.63584e-05
-1.99064e-05
-4.40456e-05
-5.8149e-05
-4.46851e-05
-4.89703e-05
-4.13968e-05
-2.16244e-07
-3.39128e-05
-1.32934e-07
-3.3044e-07
-2.52612e-07
-7.14278e-08
-4.29872e-11
0
-4.83937e-11
1.67949e-10
-1.34754e-11
8.78419e-12
-4.49711e-12
4.90742e-13
-1.95568e-12
0
-1.30803e-12
0
-8.97042e-13
8.40738e-14
0
0
0
1.46967e-12
-3.69391e-09
1.15755e-11
-5.66768e-08
1.33932e-09
-6.57352e-08
0
-1.71515e-07
0
-2.15731e-07
1.41512e-09
-5.38701e-07
-1.80766e-08
-1.96855e-06
-1.56341e-06
-8.89991e-05
-2.50394e-05
-9.6517e-05
-6.14434e-05
-8.07285e-05
-5.60399e-05
-6.99026e-05
-4.78422e-05
-4.39488e-07
-2.49521e-05
-3.43577e-07
-4.2122e-07
-2.44269e-07
-3.51535e-07
2.47457e-11
2.83422e-12
6.01756e-13
1.66384e-10
-4.17892e-13
2.33508e-11
2.73663e-15
1.17343e-12
9.66118e-15
2.22425e-14
4.01679e-15
1.13041e-14
-2.28077e-16
8.60532e-14
0
9.04939e-13
0
1.0991e-11
0
5.67286e-12
-2.83106e-09
0
-3.79399e-09
0
0
2.51393e-09
-3.00584e-08
1.12962e-08
-1.56249e-07
1.41311e-08
-2.13688e-06
-4.90246e-07
-9.7268e-05
-9.92278e-06
-0.000108158
-4.61316e-05
-9.43277e-05
-6.5454e-05
-8.27359e-05
-5.50123e-05
-1.87252e-06
-2.27788e-05
-6.72392e-07
-1.5879e-06
-3.57095e-07
-5.56638e-07
1.66724e-11
0
2.72906e-11
2.24239e-11
0
3.62422e-11
0
2.7389e-12
3.19147e-15
6.10749e-14
6.07346e-15
9.57534e-15
7.7634e-14
1.25908e-14
-1.48641e-13
4.26826e-12
-1.59799e-12
3.35674e-11
-5.78545e-12
1.25354e-11
-4.17243e-12
6.20988e-12
-1.85081e-11
0
-4.48513e-10
0
-1.2022e-09
8.58331e-10
0
0
-4.83344e-07
-6.57442e-08
-1.12502e-05
-1.29081e-06
-9.57451e-05
-1.83159e-05
-9.86905e-05
-5.8087e-05
-8.20387e-05
-6.42659e-05
-1.95054e-05
-4.42124e-05
-2.48658e-06
-1.83844e-05
-1.82281e-06
-1.00423e-06
1.74672e-12
0
6.55376e-12
8.36473e-13
6.80141e-12
3.21717e-12
0
3.99217e-12
6.3068e-15
2.37665e-13
4.19861e-15
9.78163e-15
8.62934e-15
6.46665e-15
2.81798e-14
5.22202e-12
-2.83822e-12
4.39257e-11
-1.88505e-12
1.16194e-11
-9.78997e-13
4.59875e-12
-2.51081e-11
6.08274e-12
-1.11424e-10
0
-1.49766e-10
0
0
0
-5.69025e-08
0
-1.21e-06
-1.14266e-07
-2.20067e-05
-1.4644e-06
-9.34807e-05
-2.02775e-05
-9.61447e-05
-5.30963e-05
-7.45754e-05
-5.61812e-05
-3.77144e-05
-3.75983e-05
-2.88184e-05
-1.39329e-05
1.19903e-13
1.46664e-14
5.98357e-13
7.38611e-14
6.87145e-13
4.48361e-14
6.37825e-13
1.95787e-13
1.05868e-14
3.01662e-13
5.29206e-15
1.57088e-14
3.10604e-15
6.95427e-15
8.09535e-13
3.23756e-12
-1.23516e-12
1.03972e-11
-7.42554e-13
0
-5.6344e-13
4.71931e-12
-7.28911e-12
2.21022e-11
-6.83288e-12
0
0
0
0
0
-4.18609e-10
0
-1.08384e-07
-6.30873e-10
-1.49835e-06
-9.63559e-08
-2.08571e-05
-9.27742e-07
-8.04386e-05
-1.08746e-05
-9.33927e-05
-3.41149e-05
-7.602e-05
-4.45062e-05
-4.37991e-05
-5.11407e-05
4.29333e-15
1.64954e-14
4.33231e-14
1.27659e-14
4.23399e-14
7.8129e-15
4.05968e-14
3.09423e-15
2.82757e-14
3.81752e-14
3.2456e-15
1.21158e-14
1.07464e-15
7.42672e-15
1.74396e-13
1.63109e-13
-2.54083e-15
4.23593e-14
0
0
-5.19916e-13
5.49402e-12
-1.35236e-12
4.83375e-11
-2.93161e-13
1.39456e-12
0
0
0
0
-3.88151e-10
1.54456e-11
-3.55248e-09
3.76454e-10
-9.6761e-08
-2.34838e-09
-1.03377e-06
-2.9214e-08
-1.17934e-05
-1.72625e-07
-4.14348e-05
-1.10021e-06
-6.47523e-05
-5.64543e-06
-1.97602e-05
-7.84557e-05
1.7558e-16
7.93119e-15
3.35898e-15
6.41157e-15
3.64429e-15
5.04988e-15
2.7806e-15
2.45178e-15
3.27309e-15
3.00165e-15
9.39636e-16
2.37588e-15
1.91918e-15
7.83181e-15
1.31892e-14
2.21013e-15
1.15045e-14
1.67214e-14
3.55637e-14
7.42608e-14
3.93111e-14
5.56958e-12
1.18422e-12
5.41636e-11
4.36027e-14
0
2.48863e-13
1.65794e-14
7.94706e-13
2.38308e-13
0
8.67673e-12
-1.58281e-09
1.93867e-10
-5.98549e-09
1.58413e-09
-2.83144e-08
-8.58941e-09
-1.66853e-07
-3.26568e-08
-1.24749e-06
-1.73232e-08
-6.89192e-06
-1.2706e-09
-2.02846e-09
-2.66507e-05
5.87625e-17
2.76476e-15
4.33888e-16
1.63913e-15
4.71812e-16
1.18457e-15
3.33466e-16
5.63007e-16
3.16825e-16
4.99477e-16
2.90502e-16
9.839e-16
1.31348e-15
5.43329e-15
2.19847e-15
5.61584e-15
4.97319e-15
1.52121e-14
1.224e-13
4.09973e-14
1.399e-12
3.41172e-12
2.27402e-12
8.98593e-12
0
1.66554e-14
5.79244e-14
2.1081e-14
1.21506e-12
7.26132e-14
8.29012e-12
1.68984e-12
0
4.57944e-11
-1.25368e-08
2.61646e-09
-4.44561e-08
1.57781e-08
-9.98899e-09
-1.1219e-08
-1.82848e-09
-2.56099e-08
-2.43514e-09
-7.89076e-10
-1.27544e-09
-3.31289e-09
3.2763e-17
6.31216e-16
4.8582e-17
2.10005e-16
5.28556e-17
1.39548e-16
4.21146e-17
7.36173e-17
6.74025e-17
1.46958e-16
2.10689e-16
6.04379e-16
7.24502e-16
2.00292e-15
1.13796e-15
3.25355e-15
5.42429e-15
1.34126e-14
8.73469e-14
6.73717e-14
4.03434e-13
5.92244e-13
3.32824e-13
0
8.20753e-16
4.22475e-14
8.62569e-15
2.15768e-14
1.26208e-13
2.59229e-14
2.4687e-12
4.84252e-13
3.54701e-11
1.4374e-11
0
9.3096e-10
-6.21512e-08
3.24402e-08
-1.56047e-07
3.29893e-08
-1.67635e-09
-4.82696e-09
-2.38237e-09
-2.08199e-10
-4.8907e-10
-3.30696e-09
7.85455e-18
9.45925e-17
4.97197e-18
2.09398e-17
5.49059e-18
1.41199e-17
5.07306e-18
9.35589e-18
2.54061e-17
5.23245e-17
1.17965e-16
3.11399e-16
2.76621e-16
5.80579e-16
5.92459e-16
1.23617e-15
4.94565e-15
1.11475e-14
3.03425e-14
7.91064e-14
8.40855e-14
1.15619e-13
2.88542e-14
4.66394e-14
5.31917e-15
4.18629e-14
4.6524e-15
1.71412e-14
1.98437e-14
1.90769e-14
4.55576e-13
5.40674e-14
1.33573e-11
1.30431e-12
8.65266e-10
1.06611e-10
-6.91884e-08
1.51633e-08
-1.42339e-07
1.17118e-07
-1.04194e-09
5.11457e-08
-1.6072e-09
2.19194e-10
7.30673e-11
-2.02525e-09
1.23547e-18
1.21326e-17
4.92791e-19
2.06779e-18
5.90719e-19
1.41611e-18
6.59559e-19
1.31711e-18
8.90279e-18
1.56334e-17
4.66045e-17
9.71512e-17
9.46144e-17
1.77812e-16
2.89598e-16
5.01908e-16
4.29961e-15
7.95401e-15
2.92561e-14
7.47635e-14
4.5336e-14
1.3907e-13
2.23116e-14
1.26478e-13
6.16853e-15
4.77438e-14
4.36805e-15
1.38852e-14
6.40631e-15
1.47097e-14
4.23219e-14
1.27208e-14
1.52658e-12
2.05138e-13
1.02554e-10
1.27523e-11
9.03791e-09
1.42566e-09
-6.74063e-08
5.27617e-08
-1.001e-07
1.30153e-07
-1.03345e-09
6.35564e-08
5.27601e-10
-1.53333e-09
1.7131e-19
1.53616e-18
4.89292e-20
2.0838e-19
6.87693e-20
1.40343e-19
1.00926e-19
2.00921e-19
2.30135e-18
3.11482e-18
1.28731e-17
1.7508e-17
3.27062e-17
5.10904e-17
1.41809e-16
2.12533e-16
3.05014e-15
4.33472e-15
2.63225e-14
5.11915e-14
4.11659e-14
1.15571e-13
3.51834e-14
1.24699e-13
8.95206e-15
5.4474e-14
4.1093e-15
1.30847e-14
4.532e-15
9.1164e-15
7.7274e-15
9.16345e-15
1.94465e-13
2.5926e-14
1.14703e-11
1.46955e-12
1.27385e-09
1.65933e-10
3.72428e-08
4.07154e-09
6.40827e-09
8.22139e-08
-3.68608e-08
1.33626e-07
5.7172e-08
-5.56788e-08
2.30154e-20
1.90626e-19
4.8423e-21
2.08126e-20
7.21937e-21
1.34675e-20
1.9324e-20
3.04955e-20
4.22064e-19
4.36727e-19
2.48649e-18
2.33148e-18
1.03091e-17
1.25538e-17
6.40383e-17
8.46146e-17
1.48163e-15
1.55322e-15
1.6419e-14
2.16456e-14
3.1827e-14
5.9088e-14
3.55248e-14
8.22616e-14
1.12945e-14
4.99753e-14
3.06538e-15
1.3071e-14
3.04028e-15
4.41973e-15
4.5013e-15
6.5225e-15
2.75809e-14
3.54212e-15
1.44471e-12
1.48009e-13
1.52134e-10
1.51487e-11
3.94816e-09
2.583e-10
5.49314e-08
2.23802e-09
1.70487e-07
6.88083e-09
3.39695e-08
1.37888e-07
2.9839e-21
2.26949e-20
4.72024e-22
2.04902e-21
7.02943e-22
1.24338e-21
3.37517e-21
4.29081e-21
6.1965e-20
5.37259e-20
3.88665e-19
2.98068e-19
2.81761e-18
2.79541e-18
2.63539e-17
3.13068e-17
4.62653e-16
3.57809e-16
6.00159e-15
4.78262e-15
1.54408e-14
1.56659e-14
1.99439e-14
2.88904e-14
1.0806e-14
2.5017e-14
2.62478e-15
1.06343e-14
1.77591e-15
2.27648e-15
2.78585e-15
2.8785e-15
4.18976e-15
2.76428e-15
1.47108e-13
1.12233e-14
1.39937e-11
1.05599e-12
2.49111e-10
1.86984e-11
2.35934e-09
1.44778e-10
8.7396e-09
2.26792e-10
1.40616e-10
3.16902e-08
3.67956e-22
2.58044e-21
4.48325e-23
1.99197e-22
6.64018e-23
1.10537e-22
5.09518e-22
5.39945e-22
8.3038e-21
6.47601e-21
5.64242e-20
3.86574e-20
7.02076e-19
6.00193e-19
1.0102e-17
1.07252e-17
1.03919e-16
6.58865e-17
1.20637e-15
5.76027e-16
3.86377e-15
2.12532e-15
5.94465e-15
4.85781e-15
5.64074e-15
5.73429e-15
2.22028e-15
4.47164e-15
1.00627e-15
1.26339e-15
1.16245e-15
8.13801e-16
2.176e-15
2.31122e-15
1.29255e-14
6.07443e-16
1.04552e-12
4.30908e-14
1.94238e-11
7.12876e-13
1.50053e-10
4.90161e-12
4.01367e-10
4.48947e-12
0
5.73466e-10
4.30302e-23
2.80722e-22
4.12228e-24
1.91062e-23
6.0579e-24
9.48124e-24
6.75063e-23
6.13474e-23
1.05373e-21
7.48467e-22
7.81884e-21
4.85893e-21
1.60954e-19
1.18129e-19
3.34663e-18
3.01368e-18
2.0367e-17
1.19967e-17
1.55566e-16
5.53689e-17
5.55144e-16
1.98492e-16
1.08341e-15
4.73216e-16
1.28395e-15
6.76321e-16
1.04725e-15
8.0244e-16
3.67276e-16
4.81399e-16
3.36963e-16
1.72123e-16
1.32257e-15
9.33915e-16
8.53903e-16
3.51321e-16
4.59843e-14
5.61057e-16
6.78919e-13
1.73977e-14
6.10378e-12
1.4926e-13
1.2169e-11
0
0
1.39619e-11
4.78552e-24
2.92803e-23
3.65907e-25
1.8034e-24
5.32294e-25
7.85344e-25
8.0449e-24
6.44988e-24
1.24952e-22
8.03845e-23
1.0175e-21
5.7123e-22
3.1517e-20
1.89319e-20
8.34271e-19
5.69807e-19
3.69083e-18
2.01378e-18
1.73299e-17
5.9077e-18
6.11279e-17
1.85764e-17
1.30072e-16
4.22017e-17
1.75276e-16
5.85685e-17
2.07095e-16
7.81673e-17
1.20989e-16
7.70545e-17
7.75674e-17
3.00623e-17
3.46834e-16
1.09053e-16
2.49594e-16
1.39216e-16
8.42499e-16
7.21438e-17
2.24333e-14
3.0633e-16
1.89838e-13
3.26726e-15
2.8886e-13
1.08845e-16
2.08333e-15
4.55071e-13
5.07661e-25
2.93206e-24
3.13295e-26
1.66962e-25
4.49862e-26
6.28518e-26
8.79563e-25
6.36518e-25
1.37053e-23
8.00839e-24
1.22466e-22
6.20751e-23
4.86391e-21
2.31449e-21
1.4061e-19
6.63881e-20
5.74944e-19
2.64744e-19
1.98429e-18
6.92861e-19
6.52684e-18
1.95006e-18
1.37167e-17
4.27339e-18
1.86493e-17
5.29843e-18
2.28326e-17
6.24098e-18
2.15977e-17
6.53295e-18
1.28199e-17
3.54142e-18
4.23114e-17
4.24403e-18
7.79635e-17
2.12466e-17
7.30825e-17
1.78728e-17
8.01613e-16
2.28084e-17
5.12707e-15
6.46625e-17
8.20165e-15
3.36805e-17
1.09414e-16
1.78996e-14
5.1466e-26
2.82163e-25
2.58828e-27
1.51089e-26
3.65499e-27
4.8627e-27
8.92419e-26
5.92774e-26
1.39343e-24
7.479e-25
1.35422e-23
6.23478e-24
5.87989e-22
2.28253e-22
1.63378e-20
5.63561e-21
7.2869e-20
2.68666e-20
2.33763e-19
7.86481e-20
7.2306e-19
2.14886e-19
1.46332e-18
4.67052e-19
1.84654e-18
5.29916e-19
2.14649e-18
5.23736e-19
2.16979e-18
4.81533e-19
1.38957e-18
2.95142e-19
2.14953e-18
2.10493e-19
1.02632e-17
8.65333e-19
1.52063e-17
2.1143e-18
3.40098e-17
1.79342e-18
1.44312e-16
3.08833e-18
2.17187e-16
4.94095e-18
1.13739e-17
7.3736e-16
4.99223e-27
2.61189e-26
2.06473e-28
1.33204e-27
2.85533e-28
3.63956e-28
8.46057e-27
5.22664e-27
1.32174e-25
6.60095e-26
1.3771e-24
5.82281e-25
5.97612e-23
2.03211e-23
1.52779e-21
4.48441e-22
7.69507e-21
2.37172e-21
2.63071e-20
8.00401e-21
7.98372e-20
2.24273e-20
1.56477e-19
4.9349e-20
1.81073e-19
5.33457e-20
1.95077e-19
4.70884e-20
1.77865e-19
3.77064e-20
1.17388e-19
2.18317e-20
1.22784e-19
1.43053e-20
5.37355e-19
2.54451e-20
1.48154e-18
1.05158e-19
2.09543e-18
1.32496e-19
5.12785e-18
1.43048e-19
2.13187e-17
6.77527e-19
1.6852e-18
8.44693e-17
4.63894e-28
2.32778e-27
1.59198e-29
1.14118e-28
2.14632e-29
2.63774e-29
7.53296e-28
4.37787e-28
1.17638e-26
5.53049e-27
1.29622e-25
5.10257e-26
5.51208e-24
1.73773e-24
1.31855e-22
3.62622e-23
7.20755e-22
1.99345e-22
2.66454e-21
7.21814e-22
8.15398e-21
2.07017e-21
1.57786e-20
4.64487e-21
1.7845e-20
4.94171e-21
1.71265e-20
4.18831e-21
1.38386e-20
2.99952e-21
8.41751e-21
1.57747e-21
8.33966e-21
9.56979e-22
2.11055e-20
1.07469e-21
8.16935e-20
3.04041e-21
1.71798e-19
8.20157e-21
3.30175e-19
1.50386e-20
1.91855e-18
5.75439e-20
1.88553e-19
8.67288e-18
4.13595e-29
1.99921e-28
1.18774e-30
9.48602e-30
1.55402e-30
1.85313e-30
6.32601e-29
3.49503e-29
9.86794e-28
4.41286e-28
1.13868e-26
4.23022e-27
4.77606e-25
1.43187e-25
1.09052e-23
2.88147e-24
6.23765e-23
1.61298e-23
2.40199e-22
5.91112e-23
7.3937e-22
1.69103e-22
1.43769e-21
3.83564e-22
1.61459e-21
4.09573e-22
1.45166e-21
3.4222e-22
1.04734e-21
2.29157e-22
5.81182e-22
1.10519e-22
5.42426e-22
5.92766e-23
9.00326e-22
5.61033e-23
3.15784e-21
1.08476e-22
1.00055e-20
3.56248e-22
3.51009e-20
2.1932e-21
2.07413e-19
1.25675e-20
5.25588e-20
1.13215e-18
3.54507e-30
1.65607e-29
8.58459e-32
7.64812e-31
1.08512e-31
1.26358e-31
5.03027e-30
2.66807e-30
7.83192e-29
3.36427e-29
9.40092e-28
3.3365e-28
3.91008e-26
1.12572e-26
8.59115e-25
2.18701e-25
5.04751e-24
1.24119e-24
1.96601e-23
4.5296e-24
6.01063e-23
1.27389e-23
1.17489e-22
2.88041e-23
1.31439e-22
3.0738e-23
1.14224e-22
2.54502e-23
7.56735e-23
1.63581e-23
3.78932e-23
7.39907e-24
3.29818e-23
3.43502e-24
4.17046e-23
3.01164e-24
1.29355e-22
5.03199e-24
6.23807e-22
3.24121e-23
7.20299e-21
6.58734e-22
6.569e-20
5.87537e-21
2.91448e-20
4.32934e-19
2.92883e-31
1.32408e-30
6.0179e-33
5.98696e-32
7.31591e-33
8.37364e-33
3.80091e-31
1.95394e-31
5.90271e-30
2.45882e-30
7.33311e-29
2.51393e-29
3.02559e-27
8.43368e-28
6.41348e-26
1.58216e-26
3.83412e-25
9.0682e-26
1.49474e-24
3.30209e-25
4.50411e-24
9.11994e-25
8.74683e-24
2.03598e-24
9.73645e-24
2.14192e-24
8.25227e-24
1.75034e-24
5.12607e-24
1.08672e-24
2.33041e-24
4.669e-25
1.87398e-24
1.90085e-25
1.98299e-24
1.57149e-25
6.1856e-24
2.95348e-25
8.21005e-23
6.47039e-24
2.30047e-21
2.40306e-22
2.80842e-20
2.67936e-21
1.4906e-20
2.05505e-19
2.34021e-32
1.02222e-31
4.09883e-34
4.56105e-33
4.76661e-34
5.40181e-34
2.73792e-32
1.3772e-32
4.23896e-31
1.72846e-31
5.42853e-30
1.81652e-30
2.21954e-28
6.05069e-29
4.54738e-27
1.09849e-27
2.7484e-26
6.33029e-27
1.06935e-25
2.30187e-26
3.1668e-25
6.25018e-26
6.03169e-25
1.37028e-25
6.66715e-25
1.40785e-25
5.49725e-25
1.12946e-25
3.22901e-25
6.75586e-26
1.34957e-25
2.76588e-26
9.51585e-26
1.01174e-26
9.98254e-26
8.13629e-27
4.02963e-25
2.55727e-26
1.56459e-23
1.40263e-24
6.73155e-22
6.34147e-23
9.80168e-21
8.05882e-22
4.95356e-21
7.69907e-20
1.81414e-33
7.62009e-33
2.72181e-35
3.39127e-34
3.00429e-35
3.39951e-35
1.88575e-33
9.37222e-34
2.90974e-32
1.17245e-32
3.82929e-31
1.2639e-31
1.55079e-29
4.18036e-30
3.0769e-28
7.36258e-29
1.8703e-27
4.24971e-28
7.24351e-27
1.5389e-27
2.104e-26
4.10408e-27
3.89012e-26
8.79553e-27
4.26696e-26
8.79052e-27
3.40391e-26
6.89575e-27
1.8924e-26
3.95833e-27
7.33739e-27
1.54095e-27
4.86934e-27
5.17877e-28
5.08593e-27
4.573e-28
4.04447e-26
3.24414e-27
2.72658e-24
2.22911e-25
1.37268e-22
1.00906e-23
2.25576e-21
1.43045e-22
1.01775e-21
1.94385e-20
1.36565e-34
5.48237e-34
1.77134e-36
2.46549e-35
1.83525e-36
2.09327e-36
1.24532e-34
6.17804e-35
1.91438e-33
7.69985e-34
2.58334e-32
8.50311e-33
1.03649e-30
2.79466e-31
1.99514e-29
4.78467e-30
1.21449e-28
2.75769e-29
4.66714e-28
9.91186e-29
1.32668e-27
2.5917e-28
2.3611e-27
5.39895e-28
2.57212e-27
5.24481e-28
1.97274e-27
4.0049e-28
1.03607e-27
2.19856e-28
3.7511e-28
8.09164e-29
2.57198e-28
2.60998e-29
3.0537e-28
3.21106e-29
5.16504e-27
4.64907e-28
3.57762e-25
2.38925e-26
1.91214e-23
1.1143e-24
3.61058e-22
1.91854e-23
1.6088e-22
3.52873e-21
9.96384e-36
3.80416e-35
1.13551e-37
1.75285e-36
1.08948e-37
1.26582e-37
7.90425e-36
3.95899e-36
1.20996e-34
4.91387e-35
1.67181e-33
5.55604e-34
6.64957e-32
1.81648e-32
1.24379e-30
3.0285e-31
7.55575e-30
1.73837e-30
2.87259e-29
6.18517e-30
7.97144e-29
1.58301e-29
1.3557e-28
3.18321e-29
1.46971e-28
3.01045e-29
1.07421e-28
2.22145e-29
5.31642e-29
1.16235e-29
1.81911e-29
4.00367e-30
1.26233e-29
1.36077e-30
2.78691e-29
3.13181e-30
6.54107e-28
6.00025e-29
3.40215e-26
1.87251e-27
2.05001e-24
1.02221e-25
4.91412e-23
2.48304e-24
2.36473e-23
5.38159e-22
7.02091e-37
2.54392e-36
7.19021e-39
1.21736e-37
6.29981e-39
7.54884e-39
4.83097e-37
2.47686e-37
7.35886e-36
3.06052e-36
1.04022e-34
3.5438e-35
4.10546e-33
1.15426e-33
7.47278e-32
1.87723e-32
4.51664e-31
1.07064e-31
1.69437e-30
3.76222e-31
4.57718e-30
9.40901e-31
7.45507e-30
1.81252e-30
7.93197e-30
1.67146e-30
5.49483e-30
1.18101e-30
2.55711e-30
5.86595e-31
8.49512e-31
1.86335e-31
6.3432e-31
7.7165e-32
3.24016e-30
3.8864e-31
7.46182e-29
7.11631e-30
2.53709e-27
1.38651e-28
1.76968e-25
8.17138e-27
6.04348e-24
3.03736e-25
3.2946e-24
7.36556e-23
4.76013e-38
1.63855e-37
4.49923e-40
8.24596e-39
3.55379e-40
4.45947e-40
2.84709e-38
1.52054e-38
4.31132e-37
1.86985e-37
6.23255e-36
2.21937e-36
2.44377e-34
7.21658e-35
4.33395e-33
1.14688e-33
2.59892e-32
6.48549e-33
9.59448e-32
2.24572e-32
2.51475e-31
5.47704e-32
3.9631e-31
1.00388e-31
4.01299e-31
8.99953e-32
2.63892e-31
6.04644e-32
1.14767e-31
2.83153e-32
3.96676e-32
8.17309e-33
3.4206e-32
4.94227e-33
3.91162e-31
5.0522e-32
8.47168e-30
9.68629e-31
1.99563e-28
1.57025e-29
1.3634e-26
7.57448e-28
6.7492e-25
3.71731e-26
4.58885e-25
9.33155e-24
3.09051e-39
1.01645e-38
2.77844e-41
5.43468e-40
1.95846e-41
2.62133e-41
1.62004e-39
9.21214e-40
2.43482e-38
1.12719e-38
3.5995e-37
1.37364e-37
1.40413e-35
4.47032e-36
2.42877e-34
6.9546e-35
1.44091e-33
3.89188e-34
5.21934e-33
1.32499e-33
1.32188e-32
3.1437e-33
2.00568e-32
5.44652e-33
1.92191e-32
4.71899e-33
1.18652e-32
2.99417e-33
4.77398e-33
1.30996e-33
2.01428e-33
3.44628e-34
2.01262e-33
3.5998e-34
4.58645e-32
6.63505e-33
1.1321e-30
1.68383e-31
2.42453e-29
3.07941e-30
1.34932e-27
1.17294e-28
7.85661e-26
5.48874e-27
6.91126e-26
1.17452e-24
1.90715e-40
6.07788e-40
1.68571e-42
3.47387e-41
1.05563e-42
1.53927e-42
8.91392e-41
5.54221e-41
1.32635e-39
6.74719e-40
2.00538e-38
8.45885e-39
7.79433e-37
2.76233e-37
1.316e-35
4.21411e-36
7.70145e-35
2.32963e-35
2.72815e-34
7.78056e-35
6.64289e-34
1.79078e-34
9.65695e-34
2.91354e-34
8.67798e-34
2.4243e-34
4.97189e-34
1.44057e-34
1.83743e-34
5.82818e-35
9.84961e-35
1.4671e-35
1.55765e-34
3.03702e-35
5.42509e-33
9.2073e-34
1.741e-31
3.1559e-32
4.14033e-30
7.08474e-31
1.92769e-28
2.39337e-29
1.02293e-26
9.07902e-28
1.03506e-26
1.46172e-25
1.11285e-41
3.5107e-41
9.94963e-44
2.14929e-42
5.56073e-44
9.05555e-44
4.74932e-42
3.33187e-42
6.97388e-41
4.03636e-41
1.07844e-39
5.21478e-40
4.18153e-38
1.71271e-38
6.8952e-37
2.56594e-37
3.96866e-36
1.39891e-36
1.36998e-35
4.57308e-36
3.18843e-35
1.01774e-35
4.42286e-35
1.54628e-35
3.68566e-35
1.22693e-35
1.93671e-35
6.77126e-36
6.58185e-36
2.50796e-36
3.60348e-36
6.54118e-37
1.49627e-35
2.96078e-36
6.25301e-34
1.21054e-34
2.47914e-32
4.82268e-33
6.83816e-31
1.28675e-31
2.83815e-29
4.07406e-30
1.24333e-27
1.24505e-28
1.26449e-27
1.58267e-26
6.11126e-43
1.96615e-42
5.64497e-45
1.28593e-43
2.85283e-45
5.31753e-45
2.45107e-43
2.01318e-43
3.53908e-42
2.42767e-42
5.59575e-41
3.2351e-41
2.16614e-39
1.07024e-39
3.48912e-38
1.57624e-38
1.9693e-37
8.46058e-38
6.60056e-37
2.7012e-37
1.45906e-36
5.79347e-37
1.92641e-36
8.18952e-37
1.47028e-36
6.14873e-37
7.0109e-37
3.12863e-37
2.21355e-37
1.05254e-37
1.30367e-37
3.06608e-38
1.28408e-36
2.81269e-37
5.99568e-35
1.22335e-35
2.57988e-33
4.79873e-34
8.02706e-32
1.41655e-32
3.04891e-30
4.21741e-31
1.11025e-28
1.11195e-29
1.09783e-28
1.30374e-27
3.1146e-44
1.07547e-43
2.99691e-46
7.45797e-45
1.39225e-46
3.26846e-46
1.21763e-44
1.23145e-44
1.7228e-43
1.47921e-43
2.78273e-42
2.03323e-42
1.07557e-40
6.78029e-41
1.69209e-39
9.82099e-40
9.33961e-39