/*--------------------------------*- C++ -*----------------------------------*\
  =========                 |
  \\      /  F ield         | OpenFOAM: The Open Source CFD Toolbox
   \\    /   O peration     | Website:  https://openfoam.org
    \\  /    A nd           | Version:  13
     \\/     M anipulation  |
\*---------------------------------------------------------------------------*/
FoamFile
{
    format      ascii;
    class       volScalarField;
    location    "0.75";
    object      alpha.water;
}
// * * * * * * * * * * * * * * * * * * * * * * * * * * * * * * * * * * * * * //

dimensions      [];

internalField   nonuniform List<scalar> 
2268
(
1
1
1
1
1
1
1
1
1
1
1
1
1
1
1
0.999719
0.97445
0.955354
0.977126
0.997417
0.997422
0.997376
0.997332
1
1
1
1
1
1
1
1
1
1
1
1
1
1
1
0.999987
0.98792
0.95542
0.949249
0.967273
0.970327
0.971803
0.997956
1
1
1
1
1
1
1
1
1
1
1
1
1
1
1
0.999997
0.999955
0.986399
0.949098
0.945187
0.945187
0.951334
0.999734
1
1
1
1
1
1
1
1
1
1
1
1
1
1
1
1
1
0.999963
0.99429
0.977689
0.955913
1
0.999883
1
1
1
1
1
1
1
1
1
1
1
1
1
1
1
1
1
0.999999
1
1
1
1
1
1
1
1
1
1
1
0.999998
0.999986
0.999955
0.999997
1
1
1
1
1
1
1
1
1
1
1
1
0.999989
1
1
1
1
1
1
0.999903
0.999315
0.999776
1
1
1
1
1
1
1
1
1
1
1
1
1
0.999955
1
1
0.988024
0.971098
0.9489
0.932224
0.945928
0.993286
0.999998
0.999998
0.999998
0.999998
0.999999
1
1
1
1
1
1
1
1
1
0.999952
0.972053
0.999742
0.999836
0.999819
0.967753
0.908791
0.908202
0.705996
0.698923
0.894965
0.894981
0.894981
0.894974
0.8949
0.892377
0.88675
0.888266
0.888264
0.826544
0.972172
0.999837
0.999852
0.999951
0.999954
0.999954
0.999954
0.78884
0.701412
0.894795
0.894981
0.751005
0.684613
0.639062
0.516066
0.459139
0.535085
0.868044
0.894144
0.972282
0.999773
0.999376
0.997716
0.999875
0.999954
0.975817
0.912525
0.910434
0.769181
0.192926
0.076388
0.083741
0.10544
0.140449
0.191467
0.172742
0.263526
0.893476
0.979003
0.999495
0.82123
0.928224
0.998817
0.999941
0.92964
0.939355
0.823291
0.163457
0.0142654
0.0210167
0.0298545
0.114538
0.668827
0.775797
0.371813
0.101448
0.380168
0.994577
0.938257
0.669855
0.83629
0.998114
0.99709
0.965279
0.949533
0.504626
0.0149119
0.00866697
0.014032
0.0256579
0.409305
0.780551
0.780551
0.780551
0.148717
0.041314
0.994493
0.67416
0.66981
0.8919
0.996403
0.996838
0.996546
0.771335
0.0142705
0.00628489
0.00609922
0.00855908
0.0588512
0.737785
0.780474
0.780553
0.780551
0.172191
0.040651
0.804838
0.663232
0.742438
0.970642
0.995087
0.99649
0.979931
0.506488
0.00654402
0.00314618
0.00450103
0.00600915
0.206364
0.779421
0.780031
0.780389
0.780311
0.184592
0.0408555
0.671405
0.81891
0.86261
0.732652
0.91763
0.995188
0.899251
0.215905
0.00302106
0.00181313
0.00308566
0.0110521
0.573894
0.778997
0.779426
0.779394
0.778936
0.227505
0.176281
0.413281
0.393713
0.380296
0.392189
0.460115
0.605823
0.778239
0.91076
0.97981
1
1
1
1
0.999997
0.999999
1
0.999999
0.999999
0.999999
0.999999
0.999997
0.999992
0.99995
0.0547104
0.0408976
0.0585654
0.0805955
0.109793
0.168178
0.263896
0.37709
0.499418
0.636545
0.771051
0.858107
0.898217
0.92723
0.96452
0.98202
0.986257
0.985299
0.991821
0.999536
0.999838
0.99307
0.992543
0.000551986
0.00023667
0.000685247
0.000757314
0.00061491
0.000785205
0.00251861
0.00723629
0.0186615
0.0609563
0.143314
0.236588
0.304182
0.363135
0.45626
0.527822
0.567819
0.630024
0.723699
0.730608
0.605461
0.441054
0.43674
5.09539e-05
9.97277e-06
1.27858e-05
5.75353e-06
2.06654e-06
5.17246e-06
6.15798e-06
1.74649e-06
7.28026e-06
6.24688e-05
0.000423163
0.0302441
0.0859241
0.128712
0.168714
0.249757
0.354608
0.398929
0.314803
0.106399
0.0117142
0.0010034
0.00100013
6.69749e-06
1.53732e-06
4.33722e-07
2.01554e-07
9.08256e-08
6.19351e-08
1.76358e-07
6.36468e-07
5.65934e-07
6.89018e-06
6.44839e-05
0.00462686
0.0133189
0.0129349
0.00683857
0.0076029
0.0131884
0.0808729
0.252638
0.295899
0.0797574
0.00100045
0.000999167
1.81721e-06
6.65677e-07
1.39268e-07
1.84231e-08
6.06192e-09
2.96068e-09
2.87218e-09
2.30018e-08
1.43209e-07
1.32172e-06
0.000133696
0.000235319
0.000127215
0.000295592
0.0010226
0.00429027
0.142121
0.389908
0.389843
0.389947
0.200102
0.00100787
0.00100047
5.06553e-07
1.36119e-06
1.19183e-07
6.49042e-09
1.73929e-09
3.44907e-10
1.08941e-10
9.05114e-09
6.22386e-08
4.30634e-07
1.07584e-05
5.57533e-05
8.41772e-05
0.000131583
0.000550097
0.00318651
0.150987
0.389064
0.39003
0.389064
0.163879
0.00105413
0.0010107
4.93496e-08
8.42689e-07
2.42549e-07
1.51765e-08
3.35874e-10
1.33505e-10
6.28786e-11
3.587e-08
3.45547e-07
4.33159e-07
1.29625e-07
1.08829e-06
2.46517e-05
7.98145e-05
0.000178866
0.000503156
0.00377401
0.187149
0.389064
0.386184
0.289379
0.00144476
0.00110565
7.24227e-09
2.7214e-08
1.4418e-07
3.59888e-08
1.32424e-09
6.28786e-11
6.02925e-11
5.37204e-08
4.1745e-07
3.43269e-07
4.5078e-08
3.3945e-07
1.66239e-06
4.71558e-06
1.34712e-05
5.56187e-05
0.000367307
0.00767341
0.243558
0.391987
0.399746
0.31517
0.0486331
1.01083e-09
1.6857e-09
4.08455e-09
1.32455e-08
2.66528e-09
9.96322e-11
5.96875e-11
4.21208e-08
3.3382e-07
1.19399e-07
4.10275e-08
1.21407e-07
8.0622e-07
2.48138e-07
1.88386e-06
1.36942e-05
3.82369e-05
0.000165676
0.000853611
0.216481
0.409177
0.41085
0.412758
1.7196e-10
2.10801e-10
1.58227e-10
4.07481e-10
8.69479e-10
1.11228e-10
5.96879e-11
1.49759e-08
1.90376e-08
1.51092e-09
4.03429e-08
3.27249e-07
3.94297e-07
2.80964e-08
2.42879e-07
2.63554e-06
3.13036e-05
3.88197e-05
0.0001668
0.00035114
0.0269212
0.302503
0.412257
8.05558e-11
6.13895e-11
5.3491e-11
2.96075e-11
8.93384e-11
3.7407e-11
6.00791e-11
2.34601e-10
2.52853e-10
4.74164e-10
4.2593e-08
3.75855e-07
1.01346e-07
3.21402e-09
2.973e-08
3.20514e-07
1.30271e-05
4.32016e-05
4.81524e-05
4.47862e-05
1.43135e-05
6.37605e-06
8.86945e-06
3.43101e-11
2.35533e-11
1.85967e-11
9.11403e-12
9.28831e-12
1.12889e-11
4.90034e-11
5.48316e-11
1.15499e-10
2.24955e-10
3.47084e-08
2.81536e-07
5.94008e-09
4.09266e-10
1.49041e-09
9.36439e-08
1.15038e-06
2.95157e-05
0.000309371
0.00027798
5.96497e-06
5.96156e-06
5.96132e-06
9.95476e-12
4.83729e-12
3.3126e-12
1.63463e-12
2.18381e-12
6.27355e-12
2.48138e-11
3.59619e-11
1.07909e-10
4.02633e-10
1.76341e-08
1.28802e-08
8.05883e-10
1.48974e-10
2.70374e-10
2.53503e-09
1.02456e-08
2.88244e-06
0.000378652
0.00138918
0.000373192
5.96156e-06
5.98412e-06
1.87705e-12
5.65359e-13
3.70302e-13
2.15899e-13
7.55055e-13
3.55048e-12
8.53662e-12
1.58058e-11
9.3176e-11
5.84377e-10
2.6743e-09
4.56775e-10
2.52086e-10
1.24197e-10
1.25855e-10
1.59735e-10
1.58643e-09
1.23878e-08
0.000220598
0.00144502
0.00138188
5.98412e-06
5.96535e-06
2.64971e-13
5.69082e-14
3.78248e-14
3.01434e-14
2.53624e-13
1.45431e-12
2.73697e-12
6.37767e-12
7.21853e-11
5.76047e-10
1.26147e-09
8.06077e-10
3.07764e-10
9.74978e-11
1.08267e-10
8.06148e-11
1.46633e-10
3.64152e-09
3.25704e-06
0.00102251
0.00163255
0.00119342
6.20602e-06
3.44059e-14
5.8257e-15
3.85091e-15
4.69341e-15
6.37757e-14
3.6625e-13
8.49898e-13
2.7428e-12
4.63675e-11
4.71936e-10
1.06521e-09
9.53278e-10
3.96849e-10
8.82669e-11
7.78932e-11
6.39194e-11
6.88907e-11
2.1632e-10
3.51583e-08
2.50375e-05
0.00144002
0.00165399
0.00164108
4.40761e-15
6.04176e-16
3.86757e-16
7.53631e-16
1.10919e-14
6.02487e-14
2.32692e-13
1.15457e-12
2.16048e-11
2.69747e-10
6.84686e-10
7.80332e-10
3.90354e-10
9.41184e-11
4.31429e-11
5.35946e-11
2.20548e-11
2.82417e-10
3.43023e-09
1.25556e-07
7.63154e-05
0.000743714
0.00152
5.49149e-16
6.22926e-17
3.7649e-17
1.15305e-16
1.51425e-15
8.24219e-15
5.64591e-14
4.57752e-13
6.67212e-12
9.07175e-11
2.68976e-10
4.05297e-10
2.73819e-10
8.87291e-11
2.25793e-11
3.18251e-11
2.01286e-11
2.63396e-11
2.11401e-09
7.71558e-08
5.34831e-07
2.68151e-06
0.000108004
6.56727e-17
6.36566e-18
3.53733e-18
1.59365e-17
1.9239e-16
1.11135e-15
1.2991e-14
1.72085e-13
1.47923e-12
1.63647e-11
5.65566e-11
1.1157e-10
1.03933e-10
5.58853e-11
1.39813e-11
1.26602e-11
2.00327e-11
6.01394e-12
1.30206e-10
2.54867e-09
6.75309e-08
1.12222e-07
1.28485e-07
7.52521e-18
6.43921e-19
3.21246e-19
1.97264e-18
2.36805e-17
1.48404e-16
2.83974e-15
5.73298e-14
2.94913e-13
1.8582e-12
6.82513e-12
1.58179e-11
1.99108e-11
1.76124e-11
7.32661e-12
3.53444e-12
1.28926e-11
4.29141e-12
9.71392e-12
2.10662e-10
1.92393e-09
3.82828e-09
6.13518e-09
8.27561e-19
6.42834e-20
2.82345e-20
2.23346e-19
2.74162e-18
1.88553e-17
5.3687e-16
1.43272e-14
5.61508e-14
1.99026e-13
6.65019e-13
1.55939e-12
2.21713e-12
2.75236e-12
2.03098e-12
8.15281e-13
3.44092e-12
2.49288e-12
1.46034e-12
8.09255e-12
6.13869e-11
1.37699e-10
1.0717e-09
8.74683e-20
6.30938e-21
2.40246e-21
2.36091e-20
2.94379e-19
2.22817e-18
7.95613e-17
2.30675e-15
8.91461e-15
2.42153e-14
7.07329e-14
1.59588e-13
2.11144e-13
2.71504e-13
2.75577e-13
1.35714e-13
2.68754e-13
7.3145e-13
5.52333e-13
7.61628e-13
2.28991e-12
7.84295e-12
7.5845e-11
8.89357e-21
6.06374e-22
1.97928e-22
2.35283e-21
2.95124e-20
2.43314e-19
9.14166e-18
2.42071e-16
1.08409e-15
3.01944e-15
8.33794e-15
1.85258e-14
2.21682e-14
2.42532e-14
2.46475e-14
1.51373e-14
1.2811e-14
6.96947e-14
1.18518e-13
1.02602e-13
2.18204e-13
4.81402e-13
3.68994e-12
8.70559e-22
5.68441e-23
1.57908e-23
2.22012e-22
2.79046e-21
2.46178e-20
8.89966e-19
2.05711e-17
1.07302e-16
3.46615e-16
9.74625e-16
2.18942e-15
2.47043e-15
2.34069e-15
2.09816e-15
1.3293e-15
9.17881e-16
2.48613e-15
1.10204e-14
1.27735e-14
1.44539e-14
9.9748e-14
4.94441e-13
8.20976e-23
5.18128e-24
1.22041e-24
1.98992e-23
2.50371e-22
2.32714e-21
8.10242e-20
1.72747e-18
9.7103e-18
3.52219e-17
1.02703e-16
2.36666e-16
2.60984e-16
2.33569e-16
1.8483e-16
1.08593e-16
7.26748e-17
9.48562e-17
4.41245e-16
1.16395e-15
1.90711e-15
1.07e-14
5.54071e-14
7.46439e-24
4.58203e-25
9.14262e-26
1.69937e-24
2.13912e-23
2.07498e-22
7.13593e-21
1.46367e-19
8.45792e-19
3.19862e-18
9.47147e-18
2.2345e-17
2.47651e-17
2.18395e-17
1.59734e-17
8.5915e-18
5.3061e-18
5.59757e-18
1.53154e-17
6.08081e-17
2.27373e-16
1.29088e-15
7.84753e-15
6.54804e-25
3.9274e-26
6.64421e-27
1.38679e-25
1.74533e-24
1.75731e-23
6.03563e-22
1.2014e-20
7.0529e-20
2.67763e-19
7.87446e-19
1.8764e-18
2.10161e-18
1.84964e-18
1.29587e-18
6.51493e-19
3.53836e-19
3.59504e-19
7.40425e-19
3.84367e-18
4.85656e-17
4.53566e-16
3.33931e-15
5.54602e-26
3.26339e-27
4.68838e-28
1.08458e-26
1.36391e-25
1.41985e-24
4.86729e-23
9.39534e-22
5.58414e-21
2.1182e-20
6.14338e-20
1.45866e-19
1.63076e-19
1.43042e-19
9.72975e-20
4.65168e-20
2.20922e-20
2.18877e-20
4.40001e-20
5.86644e-19
1.69457e-17
2.13571e-16
1.76299e-15
4.53775e-27
2.63289e-28
3.2158e-29
8.15286e-28
1.02389e-26
1.09834e-25
3.74916e-24
7.02313e-23
4.20959e-22
1.59875e-21
4.57436e-21
1.07318e-20
1.18149e-20
1.02636e-20
6.77398e-21
3.09917e-21
1.31391e-21
1.25895e-21
3.40638e-21
1.24965e-19
5.46393e-18
8.23136e-17
7.3565e-16
3.58761e-28
2.06749e-29
2.14719e-30
5.90773e-29
7.40538e-28
8.16403e-27
2.77283e-25
5.05066e-24
3.04062e-23
1.15436e-22
3.25647e-22
7.50634e-22
8.07613e-22
6.9089e-22
4.40312e-22
1.92602e-22
7.43131e-23
7.33683e-23
3.78424e-22
2.40672e-20
1.22667e-18
2.0852e-17
2.05738e-16
2.7405e-29
1.58308e-30
1.39848e-31
4.13842e-30
5.17543e-29
5.85299e-28
1.97858e-26
3.5108e-25
2.11542e-24
7.99891e-24
2.22028e-23
4.99898e-23
5.24075e-23
4.39279e-23
2.69027e-23
1.11939e-23
4.0457e-24
4.85565e-24
5.26422e-23
3.46694e-21
1.86934e-19
3.65108e-18
4.10656e-17
2.02168e-30
1.18223e-31
8.9094e-33
2.81095e-31
3.50603e-30
4.06319e-29
1.3681e-27
2.36842e-26
1.42403e-25
5.34503e-25
1.45661e-24
3.18066e-24
3.24992e-24
2.65074e-24
1.55305e-24
6.08996e-25
2.21855e-25
4.1658e-25
7.33298e-24
3.59679e-22
2.18671e-20
5.4459e-19
6.89507e-18
1.43935e-31
8.60024e-33
5.57096e-34
1.85773e-32
2.31061e-31
2.74331e-30
9.21069e-29
1.55787e-27
9.32205e-27
3.46348e-26
9.24731e-26
1.94192e-25
1.93899e-25
1.523e-25
8.50076e-26
3.09581e-26
1.28849e-26
4.72056e-26
9.32547e-25
2.94623e-23
2.06935e-21
7.39746e-20
1.04708e-18
9.88315e-33
6.08363e-34
3.43225e-35
1.19959e-33
1.48776e-32
1.81045e-31
6.07151e-30
1.00475e-28
5.96923e-28
2.18954e-27
5.71426e-27
1.14497e-26
1.11615e-26
8.365e-27
4.42115e-27
1.46766e-27
8.27008e-28
6.01854e-27
1.20744e-25
2.66129e-24
1.78938e-22
9.28595e-21
1.49824e-19
6.54162e-34
4.17537e-35
2.09212e-36
7.60457e-35
9.40505e-34
1.17451e-32
3.94286e-31
6.39367e-30
3.76299e-29
1.35916e-28
3.45789e-28
6.56438e-28
6.21199e-28
4.40993e-28
2.18693e-28
6.52921e-29
5.91592e-29
7.87105e-28
1.88774e-26
3.90343e-25
2.10168e-23
1.26141e-21
2.20511e-20
4.17387e-35
2.77085e-36
1.26682e-37
4.75757e-36
5.86864e-35
7.53417e-34
2.53803e-32
4.03883e-31
2.35003e-30
8.33667e-30
2.06113e-29
3.681e-29
3.35828e-29
2.23875e-29
1.03029e-29
2.85659e-30
4.68411e-30
1.08887e-28
3.47793e-27
8.14885e-26
3.70177e-24
2.00395e-22
3.36164e-21
2.5694e-36
1.77306e-37
7.64621e-39
2.95368e-37
3.63473e-36
4.80548e-35
1.62806e-33
2.54573e-32
1.46161e-31
5.07949e-31
1.21611e-30
2.03029e-30
1.77222e-30
1.09924e-30
4.6404e-31
1.29751e-31
4.32505e-31
1.53497e-29
6.10288e-28
1.67829e-26
6.88186e-25
3.08633e-23
4.64623e-22
1.52921e-37
1.09289e-38
4.61312e-40
1.82972e-38
2.24649e-37
3.06233e-36
1.04506e-34
1.60719e-33
9.0884e-33
3.08634e-32
7.12851e-32
1.10715e-31
9.17287e-32
5.24944e-32
2.01232e-32
6.14449e-33
4.27259e-32
1.86552e-30
8.06473e-29
2.52891e-27
9.60636e-26
3.60865e-24
5.01292e-23
8.83074e-39
6.47717e-40
2.72964e-41
1.13663e-39
1.39244e-38
1.95742e-37
6.73363e-36
1.01894e-34
5.66491e-34
1.87572e-33
4.16641e-33
6.0095e-33
4.68358e-33
2.45661e-33
8.50245e-34
3.06821e-34
3.71531e-33
1.67304e-31
6.97027e-30
2.34255e-28
8.28197e-27
2.81235e-25
3.93454e-24
5.00527e-40
3.7351e-41
9.93255e-43
7.17128e-41
8.76946e-40
1.27072e-38
4.40647e-37
6.55923e-36
3.57597e-35
1.13893e-34
2.35058e-34
2.93263e-34
2.21725e-34
1.04405e-34
2.61832e-35
6.76055e-36
2.64101e-34
1.10432e-32
4.14346e-31
1.36965e-29
4.52065e-28
1.53114e-26
2.25902e-25
1.4419e-41
1.22915e-42
9.52681e-43
2.3311e-42
2.83398e-41
4.23814e-40
1.4812e-38
2.1679e-37
1.16399e-36
4.20238e-36
1.2073e-35
2.54745e-35
1.35837e-35
7.10467e-36
6.19428e-36
6.19428e-36
9.28082e-36
3.40766e-34
1.15129e-32
3.56349e-31
1.10145e-29
3.81151e-28
5.69195e-27
0.999793
0.999683
0.999458
0.999069
0.994002
0.979086
0.927805
0.828388
0.454563
0.37108
0.217237
0.0372857
0.000999167
0.000999044
0.000999043
0.000999101
0.000999046
0.000999046
0.000999044
0.000999044
0.000999169
0.000999046
0.00099908
0.000999417
0.00100143
0.00100017
0.00103419
0.00102122
0.00104605
0.00171997
0.00462787
0.00538728
0.031488
0.0164867
0.0425879
0.098785
0.354882
0.143556
0.367949
0.436255
0.435657
0.436613
0.436613
0.436613
0.117754
0.364417
0.429444
0.256846
6.10648e-06
6.90567e-06
8.69239e-06
1.18226e-05
6.34387e-06
8.19701e-06
1.20783e-05
5.03596e-05
6.20602e-06
1.29063e-05
2.24442e-05
1.81202e-05
6.49827e-06
1.3352e-05
0.000126581
0.000207714
0.00104215
2.55512e-05
0.000263491
0.00108567
0.00149083
0.00146154
0.00143217
0.00138227
0.000148638
0.000121785
7.48407e-05
1.15121e-05
9.88187e-07
2.23031e-06
8.39142e-08
4.33408e-08
4.04922e-08
8.72321e-08
1.16175e-07
1.30397e-07
2.59702e-09
3.93008e-09
3.1389e-09
7.199e-10
1.26993e-10
1.55973e-10
1.53441e-10
1.47427e-10
6.24177e-12
7.78871e-12
9.25562e-12
1.02696e-11
9.2269e-13
1.24043e-12
1.58668e-12
1.91292e-12
1.14331e-13
1.66699e-13
2.36405e-13
2.93625e-13
1.84387e-14
3.08137e-14
5.18125e-14
7.36591e-14
8.29042e-15
1.44689e-14
2.57433e-14
3.78601e-14
4.42922e-15
7.7458e-15
1.38388e-14
1.99443e-14
1.84618e-15
3.20525e-15
5.68873e-15
8.06374e-15
5.20336e-16
9.06273e-16
1.60922e-15
2.33128e-15
1.06108e-16
1.8656e-16
3.30615e-16
5.1325e-16
1.81326e-17
3.16532e-17
5.48201e-17
9.35235e-17
2.79161e-18
4.84599e-18
8.08166e-18
1.36163e-17
4.05114e-19
7.21589e-19
1.18947e-18
1.75133e-18
5.98476e-20
1.07818e-19
1.813e-19
3.02041e-19
8.88115e-21
1.58378e-20
3.31593e-20
9.75591e-20
1.18346e-21
2.37719e-21
9.2939e-21
5.37413e-20
1.31025e-22
3.97544e-22
3.33831e-21
2.8671e-20
1.16099e-23
7.04086e-23
9.65529e-22
1.01683e-20
7.77985e-25
9.97369e-24
1.6813e-22
1.96845e-21
2.24467e-26
5.66615e-25
1.0434e-23
1.27252e-22
0.97562
0.974377
0.853702
0.365782
0.643003
0.990451
0.735972
0.00432705
0.00106412
0.00139323
0.00178245
0.0271792
0.771927
0.777948
0.778055
0.775065
0.740132
0.248926
0.54604
0.713923
0.446319
0.0423696
0.052084
0.200164
0.985185
0.643666
0.00103067
0.000658459
0.00104009
0.00270141
0.293656
0.773909
0.776514
0.763883
0.465083
0.314969
0.246422
0.55137
0.00104878
0.00134429
0.0407613
0.505335
0.728482
0.957128
0.544788
0.000658043
0.000553352
0.000679546
0.0300886
0.644892
0.772538
0.7733
0.368023
0.0819211
0.0816596
0.224915
0.55137
0.000999124
0.00104863
0.0015512
0.324629
0.899886
0.937878
0.381542
0.000553352
0.000531785
0.000580168
0.0604627
0.719416
0.763293
0.736164
0.126599
0.0818033
0.0830425
0.0846807
0.510225
0.000999798
0.00100781
0.00117579
0.0645526
0.694586
0.928802
0.382166
0.000531785
0.00052779
0.000531785
0.0452418
0.492982
0.235298
0.468288
0.29083
0.0831817
0.0846807
0.12893
0.498911
0.00100073
0.00100473
0.00103536
0.00316448
0.384557
0.892714
0.54776
0.00052679
0.000528877
0.000526972
0.00522321
0.131987
0.0117116
0.102671
0.536174
0.549862
0.542081
0.665766
0.8196
0.00105545
0.00108616
0.00164639
0.00210518
0.0731636
0.552883
0.623256
0.142354
0.00053438
0.000532515
0.000689041
0.0496293
0.00942526
0.0140704
0.486131
0.802172
0.890418
0.899151
0.898863
0.0123223
0.0295739
0.0226363
0.00380456
0.00470237
0.0707996
0.500212
0.525579
0.0335755
0.000688892
0.000862781
0.0530565
0.0100226
5.13259e-05
5.44725e-05
0.0851359
0.321914
0.805003
0.899152
0.239545
0.387685
0.324831
0.0602843
0.00654682
0.00777401
0.0980714
0.677828
0.518438
0.0228511
0.000949922
0.0584516
0.0148221
4.04895e-05
1.66999e-05
5.44978e-05
0.000436501
0.187194
0.89858
0.435896
0.435896
0.434139
0.430793
0.189644
0.175085
0.525716
0.678517
0.677855
0.514708
0.202683
0.130827
0.00367935
2.99761e-05
9.6935e-06
1.17908e-05
0.000114796
0.030037
0.745292
0.429497
0.349423
0.289485
0.310592
0.512982
0.675281
0.678511
0.678245
0.678431
0.677855
0.630462
0.229957
0.000174028
1.24973e-05
8.1019e-06
8.72936e-07
8.16737e-06
0.0145885
0.0935447
0.0418447
5.12794e-05
6.37046e-05
5.39122e-05
0.039787
0.239318
0.436571
0.516766
0.483293
0.326539
0.266754
0.13938
0.00402745
1.24572e-05
4.78009e-06
3.5888e-07
3.43203e-07
8.67735e-06
0.000235329
1.69014e-05
4.75405e-05
5.59791e-05
3.16486e-05
2.04901e-06
1.14089e-05
0.0108673
0.0283283
0.024289
0.00183435
0.000702593
0.00493047
0.00320287
4.00297e-05
7.05929e-06
5.44961e-08
3.68495e-08
0.000380132
0.0422782
0.000190525
0.000217009
0.000210764
2.20721e-05
2.25866e-07
4.57339e-07
1.92672e-06
0.000156562
2.35946e-05
2.35562e-05
3.52509e-05
1.71084e-05
0.000117321
1.41365e-05
4.59982e-06
3.14507e-08
2.96451e-08
5.47848e-05
0.055742
9.6668e-06
4.79392e-06
2.53456e-07
2.25866e-07
1.98269e-07
2.33379e-07
9.63488e-07
7.08624e-06
2.84533e-06
8.90116e-07
7.06113e-07
3.1898e-07
2.42482e-06
6.54029e-07
2.97344e-08
3.00497e-08
2.95736e-08
2.96453e-08
0.0531644
0.000301088
8.16877e-05
2.09774e-06
1.9793e-07
1.65639e-07
4.91778e-07
8.37601e-07
1.196e-06
1.76886e-06
9.97984e-07
6.91903e-07
3.51886e-08
2.98265e-08
2.95925e-08
2.95386e-08
2.95437e-08
2.95429e-08
0.000163416
0.00126156
0.00131404
0.000880124
0.000100233
7.18604e-07
1.19825e-07
4.82549e-09
2.24891e-09
5.7253e-07
1.61068e-06
1.79699e-06
1.80099e-06
3.79505e-07
3.0726e-08
2.98146e-08
2.95815e-08
2.95387e-08
2.95736e-08
0.00013067
0.000160078
0.00125406
0.000854861
0.000191229
1.56828e-05
8.20824e-07
3.21771e-08
1.49145e-09
6.02789e-10
5.15557e-10
8.37744e-07
5.80733e-07
1.18255e-07
4.46888e-08
3.69636e-08
2.99988e-08
2.95815e-08
2.99909e-08
0.00031208
0.000274812
4.33268e-08
3.55222e-08
5.86507e-06
2.00817e-05
2.1885e-06
5.68216e-08
1.85278e-08
5.15553e-10
5.08773e-10
5.08521e-10
5.08331e-10
5.08331e-10
4.34024e-07
1.04288e-06
1.91606e-07
2.99988e-08
3.32424e-08
0.000335626
0.00738043
3.43939e-08
3.44199e-08
2.47545e-08
1.46126e-08
1.62841e-09
4.70695e-08
2.99055e-08
9.97969e-10
5.09863e-10
5.08773e-10
5.08521e-10
5.08331e-10
1.46198e-06
1.61207e-06
8.882e-07
3.5615e-08
4.69825e-08
1.84272e-06
0.0555112
3.27586e-08
6.38515e-08
7.48767e-08
5.31784e-08
6.55018e-10
1.71076e-10
1.73885e-10
3.40987e-10
6.00987e-10
5.31963e-10
6.48695e-10
5.09439e-10
6.80209e-07
1.61688e-06
1.59311e-06
1.77654e-07
3.78549e-05
1.24265e-05
0.0608018
1.50489e-09
2.1566e-10
4.72845e-10
1.71003e-10
1.7023e-10
1.70943e-10
1.72717e-10
2.80726e-10
5.44298e-10
5.99127e-10
2.71808e-09
1.05001e-09
8.4312e-10
1.41974e-06
1.60344e-06
1.76975e-07
0.00050565
1.50552e-05
0.0608718
8.84873e-11
2.09462e-10
3.29388e-10
2.67453e-10
1.68829e-10
1.7652e-10
1.93314e-10
2.69477e-10
6.7547e-10
1.35875e-09
3.61393e-09
1.99463e-09
8.32032e-10
4.61501e-07
1.60884e-06
2.64984e-07
0.000541705
1.59908e-05
0.0608982
1.36478e-11
2.86386e-11
5.14016e-11
7.05942e-11
1.11651e-10
1.59406e-10
1.71881e-10
4.42676e-10
2.12949e-09
2.82827e-09
1.68884e-09
1.08674e-09
8.62106e-10
2.39834e-07
1.16219e-06
1.94832e-07
0.000540131
1.90672e-05
0.0609473
2.35843e-12
4.63779e-12
1.55143e-11
4.57531e-11
1.34003e-10
2.00358e-10
1.8273e-10
6.83637e-10
2.68815e-09
2.99223e-09
1.24796e-09
1.11227e-09
1.7615e-09
3.62184e-07
2.76368e-07
1.96724e-07
7.68103e-05
3.70695e-07
0.0609413
4.73205e-13
2.93546e-12
1.56156e-11
6.50797e-11
2.01221e-10
2.55157e-10
2.18242e-10
6.92853e-10
1.11416e-09
3.02381e-09
1.36613e-09
1.13628e-09
3.92102e-07
6.83325e-07
3.55267e-07
3.41473e-07
3.44033e-07
3.58369e-07
0.0608847
2.49298e-13
2.94475e-12
2.13193e-11
9.07572e-11
2.58653e-10
3.20712e-10
2.39088e-10
2.35521e-10
6.19926e-09
1.13743e-07
1.1081e-07
1.36614e-09
6.06688e-07
7.63057e-07
5.38759e-07
3.44033e-07
7.92515e-07
3.70628e-07
0.060783
1.83996e-13
3.35084e-12
2.66208e-11
1.12291e-10
3.02621e-10
3.39635e-10
2.19547e-10
2.2136e-10
6.15849e-07
1.097e-06
2.71922e-07
3.33286e-09
2.18889e-07
7.62505e-07
6.89957e-07
1.18803e-05
3.94511e-05
4.01839e-07
0.0606843
1.40581e-13
3.51872e-12
2.65853e-11
1.45189e-10
3.05215e-10
2.87487e-10
2.18407e-10
1.30207e-07
1.1417e-06
1.13519e-06
2.09145e-07
8.48674e-09
1.48461e-07
3.67439e-07
6.16214e-06
0.000105967
5.6321e-05
6.12744e-07
0.0605907
1.32201e-13
3.69114e-12
2.75013e-11
1.40831e-10
3.05218e-10
2.18407e-10
2.18407e-10
7.44908e-07
1.1417e-06
7.80542e-07
2.50384e-08
1.05899e-08
5.28364e-08
2.59922e-07
3.94391e-06
0.000105471
9.62022e-06
9.60036e-07
0.0604902
1.50252e-13
4.04843e-12
3.08065e-11
8.15037e-11
2.78131e-10
2.18407e-10
2.18407e-10
6.20177e-07
1.1417e-06
3.38342e-07
5.62267e-08
1.06058e-07
8.77098e-07
1.58494e-06
1.73001e-06
1.00805e-05
2.1847e-06
1.54174e-06
0.0603782
1.45509e-13
3.34274e-12
1.96828e-11
5.20551e-11
2.61423e-10
2.33765e-10
2.18405e-10
2.18557e-10
1.06713e-06
3.59461e-07
2.88176e-06
2.99249e-06
1.63255e-05
2.18814e-05
1.13931e-05
8.69411e-07
2.80436e-06
1.83955e-05
0.0596266
7.45731e-14
1.71779e-12
5.5746e-12
1.59936e-11
2.17177e-10
2.40613e-10
2.18557e-10
2.18638e-10
6.52922e-08
1.88665e-07
1.12714e-05
2.60675e-05
3.38417e-05
3.38436e-05
2.96388e-05
8.01667e-07
8.00444e-06
0.00114397
0.0161843
1.3738e-14
3.16025e-13
1.10009e-12
3.81609e-12
9.88197e-11
1.31578e-10
3.21024e-10
3.00367e-10
1.3314e-10
1.33142e-10
9.49104e-06
3.31439e-05
3.38425e-05
2.31947e-05
1.62282e-06
1.31406e-11
3.06836e-05
0.00150334
2.01442e-05
8.97543e-16
3.57645e-14
3.38037e-13
2.7538e-12
2.47674e-11
2.59116e-11
5.10282e-10
5.10284e-10
1.41217e-10
1.3314e-10
5.50392e-08
4.59196e-06
5.37457e-06
1.79077e-15
9.41087e-17
6.90723e-14
1.61941e-13
0.00116056
1.77289e-05
9.50279e-17
8.28899e-15
2.49574e-13
2.46849e-12
6.29003e-12
4.21523e-12
4.42786e-10
4.47386e-10
1.66931e-10
2.02956e-10
1.85873e-13
6.42273e-15
2.49883e-16
9.41087e-17
8.91518e-17
9.41087e-17
9.11747e-14
1.61941e-13
7.42498e-06
3.25221e-17
2.55797e-15
1.5425e-13
1.16453e-12
1.74338e-12
1.1287e-12
1.47491e-11
4.90701e-11
5.86094e-11
2.20127e-10
1.05017e-10
1.07365e-11
1.10893e-13
9.16555e-17
3.77769e-17
3.94957e-12
3.00925e-12
1.97631e-13
2.05827e-13
1.39749e-17
6.99755e-16
4.40384e-14
1.12047e-13
3.34546e-13
2.74555e-13
6.09686e-12
1.78456e-11
2.09086e-11
1.23042e-10
6.398e-11
8.47784e-12
1.37829e-13
7.8069e-18
8.57284e-20
2.39758e-11
2.10884e-11
5.54374e-12
1.65105e-13
4.46575e-18
1.10328e-16
3.21885e-15
4.46119e-15
5.45172e-14
4.06728e-14
3.57023e-12
4.32349e-12
2.89556e-12
2.72814e-12
1.12962e-12
9.25526e-14
4.43252e-16
2.40087e-20
2.46847e-25
4.065e-11
3.33157e-11
8.00878e-12
1.00744e-13
7.8762e-19
7.87859e-18
4.2131e-17
1.24181e-16
4.06521e-15
1.92874e-15
2.24453e-13
1.35368e-13
2.83381e-14
1.77631e-20
6.33579e-23
2.40638e-25
2.93631e-27
1.09146e-26
2.46847e-25
4.15002e-11
2.61594e-11
3.06669e-12
1.33769e-14
6.4515e-20
2.72938e-19
9.46534e-19
1.27929e-17
6.0883e-17
1.47746e-17
1.82912e-15
4.96574e-16
8.58838e-18
5.28662e-26
6.44558e-29
1.65854e-29
1.05878e-34
3.90678e-32
2.44043e-40
2.86107e-11
5.74437e-12
1.46521e-13
1.36064e-17
1.52938e-21
3.39709e-21
1.32507e-20
3.42891e-19
1.53676e-19
8.53663e-20
1.36651e-19
1.71875e-20
6.90456e-23
4.9765e-34
1.72322e-37
2.58121e-39
2.52491e-36
6.16044e-45
-5.77441e-56
1.5743e-12
8.27806e-14
7.84646e-18
2.38991e-23
)
;

boundaryField
{
    leftWall
    {
        type            zeroGradient;
    }
    rightWall
    {
        type            zeroGradient;
    }
    lowerWall
    {
        type            zeroGradient;
    }
    atmosphere
    {
        type            inletOutlet;
        inletValue      uniform 0;
        value           nonuniform List<scalar> 
46
(
1.4419e-41
1.22915e-42
9.52681e-43
2.3311e-42
2.83398e-41
4.23814e-40
1.4812e-38
2.1679e-37
1.16399e-36
4.20238e-36
1.2073e-35
2.54745e-35
1.35837e-35
7.10467e-36
6.19428e-36
6.19428e-36
9.28082e-36
3.40766e-34
1.15129e-32
3.56349e-31
1.10145e-29
3.81151e-28
5.69195e-27
2.24467e-26
5.66615e-25
1.0434e-23
1.27252e-22
1.52938e-21
0
0
0
0
0
0
0
0
0
0
0
0
0
0
0
0
0
0
)
;
    }
    defaultFaces
    {
        type            empty;
    }
}


// ************************************************************************* //
