/*--------------------------------*- C++ -*----------------------------------*\
  =========                 |
  \\      /  F ield         | OpenFOAM: The Open Source CFD Toolbox
   \\    /   O peration     | Website:  https://openfoam.org
    \\  /    A nd           | Version:  13
     \\/     M anipulation  |
\*---------------------------------------------------------------------------*/
FoamFile
{
    format      ascii;
    class       volScalarField;
    location    "0.75";
    object      p;
}
// * * * * * * * * * * * * * * * * * * * * * * * * * * * * * * * * * * * * * //

dimensions      [1 -1 -2 0 0 0 0];

internalField   nonuniform List<scalar> 
2268
(
541.624
541.465
543.331
547.488
556.044
571.676
594.379
619.716
644.126
667.91
691.745
715.731
739.585
762.738
784.424
803.899
819.613
829.808
832.7
833.606
846.255
870.846
883.459
482.238
481.452
483.152
487.102
495.108
510.92
534.466
560.43
585.13
608.992
632.928
656.978
680.928
704.271
726.173
746.059
763.767
775.32
775.639
771.547
781.646
803.766
819.614
420.63
419.531
421.57
425.506
432.855
448.663
473.291
500.646
526.021
550.008
573.945
598.096
622.157
645.622
667.78
688.102
706.325
719.061
719.972
715.101
723.484
740.955
755.442
357.619
356.287
358.781
362.521
368.868
384.488
411.018
440.703
467.069
491.135
515.034
539.299
563.608
587.375
609.903
630.704
649.186
662.676
666.663
663.915
670.528
681.363
691.976
294.098
292.287
295.097
298.583
304.506
320.886
349.54
381.527
408.534
432.432
456.186
480.577
505.225
529.442
552.473
573.903
593.078
607.889
615.531
615.273
618.966
622.711
628.857
230.558
227.819
230.804
234.134
240.632
258.062
289.772
323.296
350.289
373.846
397.371
421.854
446.913
471.696
495.315
517.512
537.728
554.033
563.607
564.641
565.137
563.738
565.708
166.984
164.236
166.323
170.229
178.584
199.117
231.084
264.947
291.43
314.822
338.381
363.176
388.768
414.226
438.405
461.363
482.744
500.478
511.398
513.144
510.612
504.47
503.836
102.867
100.549
101.602
106.084
117.554
141.232
174.887
206.764
232.215
255.34
278.931
304.183
330.46
356.817
381.573
405.345
428.282
447.881
460.119
461.686
455.239
443.191
442.807
671.261
561.78
545.238
607.241
671.741
712.776
623.328
556.296
606.915
594.425
459.226
359.305
433.657
850.869
1539.91
2002.52
1882.94
1535.06
1456.17
613.91
475.475
460.073
537.447
601.857
644.816
535.504
492.61
563.451
519.621
324.416
209.691
309.738
771.664
1516.15
1953.45
1825.1
1450.73
1387.96
538.133
381.546
372.694
465.183
537.977
568.573
436.937
401.44
470.565
335.417
183.666
146.398
237.573
634.966
1343.96
1842.28
1764.7
1373.27
1285.13
456.255
297.557
300.152
400.105
484.754
513.396
357.497
318.435
309.237
151.552
98.483
90.2214
193.028
530.35
1181.32
1643.77
1597.46
1291.99
1132.93
391.589
238.412
260.769
352.417
447.069
494.143
348.753
259.41
139.934
64.3518
48.1315
56.9992
152.459
404.315
990.049
1353.84
1305.01
1168.43
1098.37
350.354
212.714
234.388
313.794
416.338
494.499
379.383
188.546
65.4988
32.0371
26.3299
42.7689
105.981
315.797
808.321
1086.39
1048.09
1040.76
1078.45
324.34
209.253
208.28
263.734
369.477
493.827
399.373
106.059
32.5534
17.1602
15.3645
32.7314
69.2835
264.284
650.14
862.658
879.335
972.238
1061.58
298.768
199.882
177.056
191.278
263.602
452.984
379.985
62.8036
20.5319
10.018
9.76061
22.3293
50.583
232.198
503.894
668.111
728.784
889.323
1042.45
39.6714
39.6067
42.6707
47.341
55.4241
69.3982
90.6517
114.968
138.301
161.031
185.109
211.698
239.438
266.558
291.888
317.491
343.851
367.582
382.512
382.478
367.078
342.495
326.598
12.5419
10.1632
10.5301
11.4948
13.2613
16.8684
23.1071
32.4133
43.8635
54.8698
69.4987
92.8569
121.81
152.264
175.298
198.626
233.215
270.015
295.195
297.32
270.133
212.238
188.562
7.70895
7.32853
6.95828
6.514
6.20074
6.02119
6.01728
6.32995
6.97585
7.75991
8.21569
23.425
69.8212
92.1371
89.6349
100.657
143.388
192.769
232.619
251.929
195.666
89.6838
82.887
6.93106
6.64648
6.36387
6.05561
5.82842
5.62325
5.35661
5.09752
5.01285
4.92854
4.70294
6.75935
13.6763
19.494
19.6941
35.8897
87.1783
138.278
151.073
125.298
70.5612
57.1804
52.0018
6.31545
6.0327
5.78803
5.50492
5.30691
5.12405
4.88363
4.64072
4.59063
4.78772
5.06985
5.48126
6.20503
7.52991
8.17244
11.8096
33.0184
71.1515
99.0261
83.2127
54.3813
53.6807
50.1121
5.73975
5.4536
5.30396
5.10049
5.01246
4.93097
4.83398
4.7441
4.76386
4.87769
5.06399
5.20944
5.18733
4.95707
4.65437
5.91624
9.65736
38.9312
66.2027
63.9016
55.075
52.6548
50.3989
5.31929
4.98448
4.95317
4.81152
4.81906
4.77901
4.73842
4.70077
4.72357
4.82587
4.92354
4.95489
4.86425
4.47043
4.00984
4.09964
8.15019
25.5894
40.7717
53.2473
56.5475
53.4287
52.6479
5.03958
4.7889
4.71067
4.63854
4.63834
4.61689
4.58379
4.55474
4.5463
4.57757
4.58788
4.5035
4.27974
3.87388
3.41128
3.1916
3.34753
8.65094
17.9063
22.2745
33.0612
52.219
54.7659
4.79686
4.69682
4.60255
4.52584
4.49585
4.46366
4.42291
4.38007
4.3404
4.3067
4.25271
4.13403
3.91923
3.6105
3.28812
3.06043
3.01004
3.29161
8.71827
12.5783
25.4271
43.2071
54.7404
4.54827
4.55923
4.49531
4.41285
4.35634
4.3058
4.25395
4.19885
4.13857
4.07133
3.98304
3.85523
3.67409
3.44043
3.18618
2.98365
2.87441
2.7602
2.41958
7.74006
12.4548
24.809
30.8032
4.32326
4.36273
4.32201
4.25293
4.19019
4.13055
4.07098
4.00795
3.93734
3.85891
3.75852
3.62897
3.46528
3.27088
3.05526
2.84442
2.67878
2.55037
2.36136
1.55573
2.64189
16.4361
17.3224
4.12615
4.14796
4.11342
4.06078
4.00388
3.94463
3.88299
3.81659
3.74224
3.65777
3.55593
3.43091
3.27985
3.10615
2.9145
2.70892
2.5055
2.30683
2.10587
1.92755
1.74125
1.06073
0.511896
3.93383
3.93474
3.90618
3.86474
3.81474
3.75919
3.69885
3.63228
3.55713
3.47142
3.37124
3.25281
3.11416
2.95637
2.78157
2.59064
2.38858
2.17541
1.95494
1.77174
1.60752
1.36058
1.09024
3.74073
3.73352
3.71041
3.67533
3.63086
3.57932
3.5215
3.4565
3.38275
3.29876
3.20234
3.09113
2.96354
2.81955
2.6594
2.48389
2.29944
2.11571
1.94772
1.7537
1.50691
1.1984
0.856223
3.55393
3.54553
3.52504
3.49393
3.45393
3.40619
3.35144
3.28909
3.21821
3.13775
3.04634
2.94245
2.82475
2.69258
2.54514
2.38175
2.20477
2.02378
1.81001
1.58697
1.35505
1.03233
0.631402
3.37579
3.36738
3.34869
3.3207
3.2844
3.24032
3.18904
3.13018
3.06318
2.98727
2.90156
2.80501
2.69652
2.57491
2.43839
2.28425
2.10762
1.90462
1.64665
1.35401
0.988247
0.588435
0.189231
3.20552
3.19737
3.1806
3.1553
3.12226
3.08175
3.03422
2.9794
2.91694
2.84628
2.76683
2.67787
2.57844
2.46716
2.34175
2.19847
2.03075
1.82685
1.56143
1.22846
0.851946
0.391431
-0.0704566
3.04259
3.03491
3.01994
2.99703
2.96702
2.93002
2.88635
2.83587
2.77836
2.71346
2.64077
2.55977
2.46969
2.36928
2.25647
2.12775
1.97799
1.79656
1.56243
1.25383
0.891285
0.481089
0.127279
2.88637
2.87931
2.8659
2.84521
2.81804
2.78447
2.7447
2.6987
2.64637
2.5875
2.52185
2.44908
2.36866
2.27969
2.18072
2.06932
1.94228
1.79396
1.6143
1.37935
1.09534
0.812742
0.583991
2.73614
2.7298
2.71777
2.69918
2.67472
2.64446
2.60856
2.56706
2.51994
2.46714
2.40855
2.34403
2.27329
2.19585
2.11093
2.01736
1.91364
1.79788
1.6686
1.51859
1.34418
1.17266
1.03372
2.59125
2.58565
2.57487
2.55827
2.5364
2.50933
2.47719
2.44009
2.39808
2.35121
2.29951
2.24297
2.18156
2.11515
2.04352
1.96637
1.88347
1.79479
1.70164
1.60605
1.50917
1.42232
1.36284
2.4511
2.44619
2.4366
2.42185
2.40243
2.37839
2.34986
2.31698
2.27987
2.23867
2.19349
2.14448
2.09177
2.03549
1.97579
1.9129
1.84723
1.77953
1.71141
1.64592
1.58684
1.54093
1.51511
2.31513
2.31086
2.30235
2.28933
2.2722
2.25101
2.22588
2.19698
2.16448
2.12858
2.08946
2.04737
2.00257
1.95535
1.90608
1.85525
1.80355
1.75201
1.70215
1.65641
1.61815
1.59237
1.58379
2.18279
2.1791
2.17161
2.16017
2.14516
2.12661
2.10464
2.07943
2.0512
2.02017
1.9866
1.95076
1.91301
1.87374
1.83342
1.79268
1.7523
1.71337
1.67731
1.64614
1.62239
1.60966
1.61126
2.05362
2.05046
2.04389
2.03389
2.02082
2.00468
1.9856
1.96379
1.93945
1.91285
1.88425
1.85398
1.82243
1.79004
1.75732
1.72493
1.69366
1.66453
1.63882
1.61814
1.60436
1.59984
1.6066
1.92717
1.92448
1.91874
1.91004
1.89874
1.88479
1.86834
1.84959
1.82876
1.80612
1.78194
1.75658
1.73042
1.7039
1.67756
1.65201
1.628
1.60643
1.58836
1.57505
1.56785
1.56835
1.57773
1.80305
1.80077
1.79578
1.78825
1.77853
1.76656
1.75246
1.73646
1.71876
1.69963
1.67935
1.65826
1.63672
1.61519
1.59414
1.57416
1.5559
1.54014
1.52772
1.51962
1.51683
1.52043
1.53121
1.68089
1.67896
1.67465
1.66818
1.65987
1.64965
1.63765
1.62409
1.60917
1.59313
1.57624
1.55883
1.54124
1.52389
1.50722
1.49174
1.47803
1.46672
1.45849
1.4541
1.45426
1.45973
1.47103
1.56038
1.55875
1.55503
1.54951
1.54246
1.5338
1.52366
1.51225
1.49976
1.4864
1.47245
1.4582
1.44396
1.4301
1.41703
1.40518
1.39505
1.38714
1.38202
1.38023
1.38232
1.38882
1.40005
1.44123
1.43984
1.43668
1.43198
1.42604
1.41876
1.41026
1.40073
1.39035
1.37933
1.3679
1.35633
1.34491
1.33396
1.32382
1.31489
1.30756
1.30225
1.2994
1.29942
1.30272
1.30966
1.32046
1.32321
1.322
1.31935
1.31538
1.31042
1.30434
1.29727
1.28938
1.28084
1.27182
1.26255
1.25325
1.24418
1.23563
1.22789
1.22128
1.21613
1.21279
1.21158
1.21283
1.21682
1.22383
1.23397
1.20611
1.20506
1.20285
1.19951
1.19541
1.19038
1.18456
1.17809
1.17112
1.16382
1.15637
1.14898
1.14188
1.1353
1.12949
1.12473
1.12128
1.1194
1.11937
1.12141
1.12575
1.13256
1.14191
1.08974
1.08884
1.087
1.08421
1.08087
1.07674
1.072
1.06675
1.06113
1.05529
1.04939
1.04361
1.03812
1.03315
1.02891
1.0256
1.02345
1.02267
1.02345
1.02599
1.03042
1.03687
1.04536
0.973964
0.973208
0.971683
0.969368
0.966667
0.963325
0.959505
0.95531
0.950842
0.946239
0.941635
0.93718
0.933037
0.929376
0.926374
0.924205
0.923045
0.923058
0.924395
0.92719
0.931545
0.937538
0.945174
0.858638
0.858033
0.856764
0.854863
0.852713
0.850038
0.847013
0.843707
0.840215
0.836653
0.833132
0.829778
0.826727
0.824119
0.822098
0.820806
0.82038
0.820948
0.822625
0.825503
0.829653
0.835122
0.841896
0.743653
0.743211
0.742153
0.740606
0.738922
0.736815
0.734465
0.731911
0.729239
0.726545
0.723916
0.72146
0.719287
0.71751
0.716245
0.715605
0.715698
0.71662
0.718455
0.721268
0.7251
0.729977
0.735869
0.628914
0.62866
0.627767
0.626523
0.625233
0.623606
0.621825
0.619901
0.617911
0.61593
0.614027
0.612289
0.610805
0.609664
0.608958
0.608776
0.6092
0.610299
0.612134
0.614745
0.618157
0.622376
0.627361
0.514339
0.514312
0.513531
0.512557
0.511598
0.510376
0.509074
0.50767
0.506239
0.504834
0.503509
0.502333
0.501373
0.500699
0.500382
0.500489
0.501078
0.502201
0.503897
0.506192
0.509095
0.5126
0.516663
0.399882
0.400098
0.399385
0.398661
0.397983
0.397104
0.396199
0.395221
0.394243
0.393296
0.392422
0.391673
0.391097
0.390747
0.390674
0.390926
0.391544
0.392563
0.394009
0.395894
0.398222
0.40098
0.404125
0.285499
0.285924
0.285276
0.284796
0.284355
0.283765
0.28319
0.282557
0.281943
0.281356
0.280829
0.280396
0.280089
0.279945
0.279998
0.280281
0.280819
0.281635
0.282744
0.284154
0.285861
0.287853
0.290091
0.17126
0.171767
0.171184
0.170944
0.170703
0.170367
0.170064
0.169717
0.169396
0.169091
0.168826
0.16862
0.168491
0.168461
0.168548
0.168771
0.169144
0.169681
0.170389
0.171271
0.172323
0.173535
0.174876
0.0567488
0.0573102
0.0570459
0.0570019
0.0569229
0.0568054
0.0567257
0.0566196
0.0565376
0.0564584
0.0563974
0.0563577
0.0563448
0.0563659
0.0564273
0.056534
0.0566901
0.0568983
0.057161
0.057477
0.057844
0.0582554
0.0586949
308.592
292.775
276.61
261.491
167.972
147.554
129.646
116.925
78.8655
69.6765
60.2738
57.1056
50.0692
50.3151
51.4775
52.9357
48.3321
47.936
48.2046
49.3134
49.1818
48.9789
49.5296
50.8483
52.2057
52.0803
52.5101
53.6481
54.4085
53.4212
52.6161
53.5146
52.9481
47.0853
45.0882
46.1409
32.1111
33.8119
29.3614
29.1794
5.59424
1.45491
2.09572
7.40785
6.60977
21.538
26.8794
16.7877
0.747711
0.4244
0.195659
0.279395
0.555662
0.44067
0.47215
0.603554
0.370513
0.26081
0.216611
0.242114
-0.0325988
-0.141603
-0.218331
-0.228767
-0.396085
-0.460011
-0.466135
-0.437917
-0.0844417
-0.177055
-0.145447
-0.00737904
0.480237
0.462764
0.51436
0.621194
0.984405
0.985394
1.01846
1.08312
1.36294
1.37609
1.40122
1.44235
1.52195
1.53764
1.56078
1.59262
1.59751
1.61451
1.63632
1.66288
1.62705
1.64219
1.66066
1.68265
1.6223
1.63609
1.65204
1.67071
1.59262
1.60474
1.61926
1.63564
1.54539
1.5565
1.56923
1.5835
1.48427
1.49433
1.50564
1.51818
1.41225
1.42132
1.43143
1.44243
1.33153
1.3396
1.34846
1.35822
1.24394
1.25112
1.25895
1.26746
1.1508
1.15715
1.16405
1.17154
1.05319
1.05871
1.06463
1.07092
0.952044
0.956844
0.961982
0.967457
0.84786
0.851993
0.856392
0.861052
0.740954
0.74445
0.748147
0.752035
0.631584
0.634465
0.637492
0.640655
0.520047
0.52234
0.524735
0.527221
0.406707
0.408448
0.410256
0.412116
0.291906
0.293123
0.294376
0.295656
0.17595
0.176663
0.177382
0.178095
0.0590359
0.0592571
0.0594733
0.0596774
236.327
161.436
126.942
115.433
124.156
305.843
225.046
39.0669
12.3745
5.36399
6.2259
9.36403
26.9986
167.559
306.854
411.837
503.768
725.911
875.717
102.561
84.727
84.0635
77.8851
61.2859
122.108
66.8511
14.7574
6.55885
3.20148
4.01477
0.941678
55.8758
108.774
199.804
287.909
362.128
532.552
667.143
58.9767
59.177
58.7027
51.7807
20.8197
27.7253
13.4653
7.57366
5.13806
2.4214
1.29801
2.01649
79.2442
135.222
257.936
301.376
354.845
431.824
535.876
55.5287
57.4359
56.5849
56.1885
34.2376
0.52479
9.58956
9.66329
5.84099
2.88
0.47697
3.90782
80.9241
166.654
257.566
308.649
363.899
400.551
438.52
52.6581
56.2649
56.4211
55.154
33.4759
0.0896502
10.4641
12.4027
7.41046
4.77951
3.58971
8.61516
44.2898
75.9447
218.722
288.805
338.675
367.755
373.174
53.8669
56.7612
56.6432
54.7838
51.5653
19.5486
14.0675
14.6248
9.1302
7.27536
7.22032
16.4371
21.7727
24.4972
114.832
226.955
281.464
307.136
296.761
56.2557
58.236
56.9625
55.4441
55.0137
48.6692
51.7626
12.4182
8.64304
8.65921
9.65706
13.8292
14.4533
12.8568
35.5623
136.431
198.098
231.904
198.649
57.8789
59.5181
55.0003
53.4889
52.8516
53.0421
57.6746
30.1878
9.59603
10.7449
11.4303
11.9475
11.4216
8.76861
7.65027
15.8096
52.1764
116.23
83.4927
47.2971
43.7748
37.5682
48.289
49.7137
50.8177
52.0068
45.2845
7.99095
12.4624
13.7881
10.8191
8.67277
7.16157
6.75588
7.36875
11.8486
19.5541
20.6632
28.7184
40.1942
59.4052
64.7858
49.8723
44.0545
41.7457
33.4615
44.4849
18.689
7.33824
3.52368
6.54061
6.48672
5.8785
5.99865
6.66195
9.56583
83.2073
6.94799
23.6077
19.9155
17.9683
40.0993
71.4897
68.1894
61.4082
72.1828
57.3366
36.6728
5.75221
5.71545
5.64728
5.17801
5.26116
5.36742
8.0507
45.0739
3.97282
2.39869
2.07352
2.02075
4.61828
15.0947
28.7335
38.8899
37.092
24.8487
20.7711
7.60985
5.0968
5.36382
4.91938
4.85096
4.83759
6.04901
16.5649
0.703272
1.55901
2.04705
2.4166
2.33063
1.86871
2.37457
4.14742
4.12897
4.26088
4.028
3.26227
5.03877
5.31174
5.00821
4.88732
4.99791
4.94813
7.92604
0.892248
1.36598
1.78166
2.18426
2.42384
2.59597
2.68221
2.88408
3.3631
4.03624
4.15716
4.2287
4.91059
5.02765
4.95142
4.9602
5.12069
5.07284
5.87588
0.459708
1.07122
1.70088
2.24799
2.68644
3.05158
3.32985
3.56482
3.78091
4.03334
4.19869
4.45059
4.84925
4.76412
4.78954
4.86691
4.98709
5.07542
5.55163
-0.0169137
0.800723
1.62189
2.2737
2.78629
3.16921
3.43721
3.62564
3.77374
3.91907
4.07236
4.29619
4.53342
4.55951
4.60505
4.66653
4.73803
4.60862
4.64333
-0.228253
0.7083
1.62272
2.27262
2.74542
3.0849
3.32077
3.48786
3.61927
3.75466
3.90328
4.07831
4.24433
4.32686
4.38361
4.42225
4.47184
4.29229
4.47292
0.325938
0.999621
1.70899
2.2672
2.66925
2.95318
3.15809
3.31567
3.45048
3.58316
3.7212
3.86486
3.99611
4.08533
4.15056
4.18332
4.24365
4.10808
4.25702
0.850004
1.29438
1.80152
2.24116
2.56844
2.80703
2.9901
3.14066
3.27445
3.40244
3.52889
3.65203
3.76491
3.85232
3.92494
3.95459
4.0241
3.85285
4.28228
1.23608
1.54179
1.89851
2.21937
2.47242
2.67097
2.8342
2.97497
3.10214
3.22182
3.33714
3.44708
3.54979
3.63469
3.7144
3.74418
3.83424
3.7339
4.02096
1.53402
1.72728
1.95846
2.18437
2.38033
2.54588
2.68951
2.81798
2.93573
3.04604
3.1512
3.25103
3.34656
3.42911
3.51556
3.54892
3.68557
3.61503
4.01071
1.66023
1.79509
1.96053
2.13071
2.28753
2.42765
2.55385
2.66922
2.77599
2.87591
2.9708
3.06133
3.15024
3.22929
3.31659
3.34329
3.49322
3.42244
3.82169
1.71569
1.8165
1.9397
2.07086
2.19792
2.31629
2.42584
2.52762
2.62244
2.71094
2.79474
2.87545
2.95662
3.03016
3.11067
3.13138
3.23569
3.20397
3.51263
1.7256
1.80509
1.90116
2.00514
2.109
2.2087
2.303
2.39157
2.47405
2.55013
2.62136
2.69063
2.7623
2.82886
2.89888
2.92049
2.96253
2.9654
3.20463
1.70663
1.77131
1.8484
1.93249
2.01833
2.10261
2.18353
2.25983
2.32996
2.39235
2.44871
2.50427
2.56517
2.62535
2.68833
2.71966
2.75231
2.74162
2.97156
1.66642
1.72032
1.78371
1.85308
1.92491
1.99652
2.06594
2.13125
2.18916
2.23647
2.27561
2.3158
2.36615
2.42259
2.48564
2.53209
2.59446
2.54278
2.81885
1.6101
1.65574
1.70882
1.76701
1.8278
1.88905
1.94889
2.00465
2.05081
2.08244
2.10353
2.12881
2.17052
2.22602
2.29425
2.35287
2.43506
2.35814
2.67865
1.54131
1.58034
1.62531
1.67463
1.72651
1.77923
1.83121
1.87897
1.91471
1.93202
1.9371
1.95034
1.98595
2.04189
2.11792
2.18623
2.25404
2.18713
2.50484
1.4626
1.49612
1.53444
1.57644
1.62085
1.66641
1.71195
1.75347
1.78168
1.78926
1.78349
1.78881
1.8193
1.87378
1.94588
2.01006
2.06643
2.02457
2.29065
1.37585
1.40467
1.43736
1.47312
1.51107
1.5504
1.59039
1.62731
1.65221
1.65782
1.64864
1.65123
1.67544
1.72078
1.78051
1.82176
1.88544
1.88344
2.04692
1.28274
1.30745
1.33526
1.36558
1.39779
1.43142
1.46611
1.49903
1.52354
1.5326
1.53022
1.53333
1.5526
1.5905
1.63369
1.64687
1.71537
1.79731
1.87319
1.18462
1.20571
1.22926
1.25479
1.28182
1.31
1.33912
1.36732
1.39084
1.40488
1.40984
1.41227
1.42002
1.4359
1.46115
1.46582
1.50699
1.67621
1.55403
1.08243
1.10045
1.12028
1.14158
1.16391
1.18689
1.21025
1.2327
1.2523
1.26656
1.2728
1.27048
1.26601
1.2622
1.26157
1.2438
1.1664
1.18224
1.63592
0.977207
0.992413
1.00895
1.02647
1.04459
1.06283
1.08081
1.09748
1.11151
1.12166
1.1248
1.11797
1.10631
1.09067
1.06782
1.01309
0.866627
0.554835
0.593648
0.869268
0.881933
0.8955
0.909654
0.924032
0.938144
0.951637
0.963556
0.972447
0.977658
0.977596
0.97002
0.957442
0.937328
0.904743
0.839988
0.697113
0.443686
0.537341
0.758843
0.769169
0.780025
0.791157
0.802233
0.812796
0.822629
0.830879
0.836143
0.83822
0.83693
0.830189
0.818832
0.800038
0.771764
0.725787
0.633881
0.507604
0.601196
0.646153
0.654319
0.662707
0.671138
0.679298
0.686796
0.693549
0.698791
0.701502
0.701798
0.699883
0.694163
0.685278
0.671218
0.654411
0.634893
0.612192
0.588453
0.639058
0.531511
0.537701
0.543881
0.549915
0.555523
0.560383
0.564511
0.567259
0.568061
0.567187
0.564769
0.559794
0.553309
0.543755
0.536177
0.53056
0.535549
0.549964
0.576418
0.41529
0.419689
0.423907
0.427811
0.431195
0.433824
0.435751
0.436505
0.435803
0.433916
0.430892
0.426175
0.420821
0.413492
0.409631
0.406774
0.413167
0.428522
0.439961
0.297834
0.300594
0.303057
0.305065
0.306505
0.307257
0.307334
0.306413
0.30433
0.3013
0.297337
0.292171
0.286469
0.279293
0.27484
0.270027
0.270723
0.276369
0.279243
0.179238
0.18067
0.181568
0.18189
0.181606
0.180664
0.179009
0.176458
0.172966
0.168664
0.163509
0.15729
0.150202
0.141731
0.134263
0.125572
0.119957
0.116762
0.113999
0.0599832
0.0601516
0.0596218
0.0583751
0.0563936
0.0536979
0.050234
0.0459527
0.0410326
0.0354926
0.0290725
0.0214028
0.0123409
0.00131402
-0.0101718
-0.0251526
-0.0373703
-0.0512479
-0.0614033
)
;

boundaryField
{
    leftWall
    {
        type            calculated;
        value           nonuniform List<scalar> 
50
(
541.624
482.238
420.63
357.619
294.098
230.558
166.984
102.867
39.6714
12.5419
7.70895
6.93106
6.31545
5.73975
5.31929
5.03958
4.79686
4.54827
4.32326
4.12615
3.93383
3.74073
3.55393
3.37579
3.20552
3.04259
2.88637
2.73614
2.59125
2.4511
2.31513
2.18279
2.05362
1.92717
1.80305
1.68089
1.56038
1.44123
1.32321
1.20611
1.08974
0.973964
0.858638
0.743653
0.628914
0.514339
0.399882
0.285499
0.17126
0.0567488
)
;
    }
    rightWall
    {
        type            calculated;
        value           nonuniform List<scalar> 
50
(
1456.17
1387.96
1285.13
1132.93
1098.37
1078.45
1061.58
1042.45
875.717
667.143
535.876
438.52
373.174
296.761
198.649
83.4927
20.6632
83.2073
45.0739
16.5649
7.92604
5.87588
5.55163
4.64333
4.47292
4.25702
4.28228
4.02096
4.01071
3.82169
3.51263
3.20463
2.97156
2.81885
2.67865
2.50484
2.29065
2.04692
1.87319
1.55403
1.63592
0.593648
0.537341
0.601196
0.639058
0.576418
0.439961
0.279243
0.113999
-0.0614033
)
;
    }
    lowerWall
    {
        type            calculated;
        value           nonuniform List<scalar> 
62
(
571.054
570.895
572.761
576.917
585.473
601.105
623.808
649.145
673.556
697.339
721.174
745.16
769.014
792.168
813.853
833.32
848.291
857.925
861.457
862.959
875.609
900.198
912.81
883.459
819.614
755.442
691.976
628.857
565.708
503.836
442.807
371.176
355.352
339.173
324.03
671.261
613.91
538.133
456.255
391.589
350.354
324.34
298.768
699.869
591.202
574.662
636.665
700.223
739.524
650.059
577.082
627.492
620.767
485.568
385.647
459.999
877.209
1566.18
2028.62
1909.08
1561.21
1480.5
)
;
    }
    atmosphere
    {
        type            calculated;
        value           nonuniform List<scalar> 
46
(
0
0
0
0
0
0
0
0
0
0
0
0
0
0
0
0
0
0
0
0
0
0
0
0
0
0
0
0
-0.000335262
-0.00157303
-0.00363559
-0.00656113
-0.0101845
-0.0145912
-0.0197801
-0.0253465
-0.0314249
-0.0385013
-0.0470491
-0.0572372
-0.0702029
-0.0834353
-0.103836
-0.118321
-0.141435
-0.158807
)
;
    }
    defaultFaces
    {
        type            empty;
    }
}


// ************************************************************************* //
