/*--------------------------------*- C++ -*----------------------------------*\
  =========                 |
  \\      /  F ield         | OpenFOAM: The Open Source CFD Toolbox
   \\    /   O peration     | Website:  https://openfoam.org
    \\  /    A nd           | Version:  13
     \\/     M anipulation  |
\*---------------------------------------------------------------------------*/
FoamFile
{
    format      ascii;
    class       volScalarField;
    location    "0.75";
    object      p_rgh;
}
// * * * * * * * * * * * * * * * * * * * * * * * * * * * * * * * * * * * * * //

dimensions      [1 -1 -2 0 0 0 0];

internalField   nonuniform List<scalar> 
2268
(
571.054
570.895
572.761
576.917
585.473
601.105
623.808
649.145
673.556
697.339
721.174
745.16
769.014
792.168
813.853
833.32
848.291
857.925
861.457
862.959
875.609
900.198
912.81
570.526
569.74
571.44
575.39
583.396
599.208
622.754
648.718
673.419
697.28
721.216
745.266
769.217
792.559
814.461
834.346
850.99
859.676
859.451
856.948
867.317
889.567
907.722
567.777
566.677
568.717
572.653
580.001
595.81
620.437
647.793
673.168
697.155
721.091
745.243
769.304
792.768
814.926
835.249
853.465
864.208
859.636
854.191
862.573
880.948
902.55
563.625
562.292
564.787
568.526
574.874
590.494
617.023
646.709
673.075
697.141
721.04
745.304
769.613
793.381
815.909
836.71
855.192
868.674
871.494
865.329
867.46
887.368
897.957
558.962
557.151
559.961
563.448
569.37
585.751
614.405
646.391
673.398
697.296
721.05
745.441
770.089
794.306
817.338
838.768
857.943
872.753
880.395
880.137
883.83
887.576
893.721
554.281
551.542
554.527
557.857
564.355
581.785
613.494
647.014
673.998
697.568
721.094
745.577
770.636
795.419
819.038
841.235
861.451
877.756
887.33
888.364
888.86
887.461
889.428
549.566
546.817
548.905
552.811
561.166
581.699
613.628
647.267
673.926
697.404
720.963
745.758
771.35
796.807
820.987
843.945
865.325
883.06
893.98
895.725
893.194
887.051
886.401
544.308
541.99
537.761
534.779
536.459
552.784
592.482
645.244
673.654
696.779
720.371
745.623
771.9
798.258
823.014
846.786
869.722
889.322
901.559
903.126
896.68
884.632
884.226
699.869
591.202
574.662
636.665
700.223
739.524
650.059
577.082
627.492
620.767
485.568
385.647
459.999
877.209
1566.18
2028.62
1909.08
1561.21
1480.5
699.744
563.749
548.348
625.731
690.141
733.1
623.788
562.274
625.403
598.63
403.441
276.018
370.209
828.118
1561.76
1994.03
1872.38
1527.38
1466.92
681.206
528.659
519.75
611.994
685.105
715.713
580.529
535.727
604.546
448.633
212.173
157.775
250.03
650.613
1364.75
1870.57
1790.24
1412.16
1416.62
657.94
503.459
469.366
591.339
690.516
719.389
549.022
511.959
478.876
185.397
101.625
94.7527
199.378
554.128
1319.17
1803.63
1674.18
1313.08
1211.38
655.018
486.939
438.277
573.964
711.434
758.237
604.43
510.921
273.722
68.5624
50.6897
60.977
159.513
512.882
1196.85
1560.64
1511.81
1208.04
1109.57
672.296
431.061
451.328
602.558
738.897
817.199
701.989
438.319
70.4376
34.3933
28.6261
45.8606
125.337
554.72
1061.05
1339.14
1300.84
1096.77
1091.92
632.331
463.123
492.421
635.095
750.181
875.068
774.285
300.021
35.4371
18.7453
17.4674
35.4106
148.538
562.561
948.65
1161.3
1177.95
1043.17
1077.58
595.299
561.462
557.908
514.818
668.717
892.303
776.995
158.459
22.3057
11.2591
11.5628
27.6447
304.111
576.177
848.061
1012.26
1072.73
990.094
1120.63
260.456
249.963
245.877
256.885
301.168
392.795
505.935
600.876
661.008
694.498
718.576
745.164
772.905
800.024
825.354
850.958
877.318
901.049
915.978
915.945
900.543
875.958
860.039
49.2002
37.7325
49.725
65.1856
86.1642
128.189
197.41
281.198
373.14
474.377
577.511
658.152
713.498
763.043
810.613
845.457
882.834
919.003
948.475
955.677
928.688
866.339
842.317
8.92505
8.29772
8.27873
7.89089
7.46612
7.41992
8.77339
12.7803
22.373
56.2769
121.225
209.474
308.802
377.282
447.703
514.764
588.816
686.906
800.111
824.832
670.569
435.844
425.67
7.88638
7.56458
7.28453
6.96989
6.73934
6.537
6.27125
6.00815
5.92852
5.89432
5.99628
35.1343
92.6166
137.292
173.82
263.613
410.122
501.471
437.868
222.832
82.1084
59.0007
53.8191
7.35661
7.06853
6.82272
6.53937
6.34125
6.15836
5.91805
5.67562
5.62546
5.82908
6.17072
11.296
21.0005
21.9287
16.2724
20.6992
47.6791
155.745
361.089
389.973
137.822
55.7486
52.1787
6.90129
6.61381
6.46356
6.25996
6.17191
6.09042
5.99342
5.90357
5.92346
6.03866
6.37829
6.64145
6.49412
6.45889
6.99828
12.045
175.432
491.713
518.91
516.729
288.009
54.9816
52.7171
6.60457
6.27086
6.23796
6.09616
6.1037
6.06365
6.02305
5.98541
6.00828
6.11105
6.22198
6.31108
6.25691
5.92393
6.00044
9.47368
203.204
526.179
542.601
553.837
268.146
56.0662
55.2296
6.44948
6.19992
6.12084
6.04839
6.04817
6.02672
5.99362
5.96462
5.95661
5.98801
5.99789
5.91486
5.72429
5.39613
5.07302
5.31008
10.0727
273.645
567.281
567.593
442.038
55.6636
57.7329
6.3319
6.23188
6.1378
6.06092
6.03087
5.99868
5.95793
5.91517
5.87607
5.84225
5.7878
5.66957
5.45681
5.15276
4.8438
4.68074
5.10833
16.5937
383.746
615.221
639.967
528.052
130.854
6.20849
6.21945
6.15553
6.07309
6.01656
5.96602
5.91416
5.85914
5.79934
5.73175
5.64333
5.51565
5.33564
5.10106
4.84953
4.66658
4.59804
4.6952
5.49556
368.446
692.759
707.888
717.046
6.10867
6.14815
6.10742
6.03834
5.9756
5.91596
5.85639
5.79338
5.72278
5.64433
5.544
5.41497
5.2514
5.05634
4.8411
4.63453
4.52003
4.40502
4.44428
3.96745
52.4448
557.774
754.421
6.03676
6.05856
6.02403
5.97138
5.91448
5.85523
5.79359
5.72719
5.65285
5.56838
5.46662
5.34223
5.19065
5.01676
4.82516
4.62013
4.44097
4.2999
4.10838
3.92364
3.67917
2.9835
2.43943
5.96964
5.97054
5.94198
5.90054
5.85054
5.79499
5.73465
5.66808
5.59293
5.50723
5.40711
5.28919
5.14997
4.99217
4.81738
4.62663
4.42672
4.27124
4.61993
4.37289
3.65545
3.40851
3.13817
5.90173
5.89452
5.8714
5.83632
5.79185
5.74031
5.68249
5.61749
5.54374
5.45976
5.36338
5.25216
5.12454
4.98055
4.8204
4.64489
4.46046
4.28293
4.92616
6.91371
4.47357
3.37227
3.03014
5.84012
5.83172
5.81123
5.78013
5.74012
5.69238
5.63763
5.57528
5.5044
5.42394
5.33254
5.22864
5.11094
4.97877
4.83133
4.66794
4.49097
4.31
4.60002
7.17344
6.79732
3.33219
2.93122
5.78717
5.77876
5.76007
5.73208
5.69579
5.6517
5.60042
5.54156
5.47457
5.39865
5.31294
5.2164
5.10791
4.98629
4.84977
4.69563
4.51901
4.31601
4.06588
6.22859
7.33239
5.87473
2.61557
5.7421
5.73395
5.71718
5.69188
5.65884
5.61833
5.5708
5.51598
5.45352
5.38286
5.30341
5.21445
5.11502
5.00374
4.87833
4.73505
4.56733
4.36343
4.0981
3.82849
7.03761
7.11929
6.6247
5.70436
5.69669
5.68172
5.65881
5.62879
5.59179
5.54812
5.49764
5.44014
5.37524
5.30255
5.22155
5.13147
5.03106
4.91825
4.78953
4.63976
4.45833
4.22421
3.91594
3.75599
5.12048
6.8309
5.67334
5.66628
5.65287
5.63218
5.60501
5.57144
5.53167
5.48567
5.43334
5.37446
5.30882
5.23605
5.15563
5.06666
4.96769
4.85629
4.72925
4.58092
4.40128
4.16653
3.88379
3.60718
3.67166
5.6483
5.64196
5.62993
5.61134
5.58688
5.55662
5.52072
5.47922
5.4321
5.3793
5.32072
5.25619
5.18545
5.10801
5.0231
4.92952
4.82581
4.71004
4.58077
4.43076
4.25654
4.08515
3.94626
5.62861
5.623
5.61223
5.59563
5.57376
5.54669
5.51455
5.47744
5.43544
5.38857
5.33686
5.28033
5.21892
5.15251
5.08088
5.00373
4.92082
4.83215
4.739
4.64341
4.54653
4.45969
4.40022
5.61365
5.60875
5.59915
5.5844
5.56498
5.54094
5.51241
5.47953
5.44242
5.40122
5.35604
5.30703
5.25432
5.19804
5.13835
5.07545
5.00978
4.94209
4.87396
4.80847
4.7494
4.70348
4.67767
5.60287
5.5986
5.5901
5.57707
5.55994
5.53875
5.51362
5.48472
5.45223
5.41632
5.37721
5.33512
5.29031
5.24309
5.19383
5.143
5.0913
5.03976
4.9899
4.94416
4.9059
4.88012
4.87154
5.59573
5.59204
5.58455
5.57311
5.5581
5.53955
5.51758
5.49237
5.46414
5.43311
5.39954
5.3637
5.32595
5.28668
5.24637
5.20562
5.16525
5.12631
5.09025
5.05908
5.03533
5.02261
5.0242
5.59176
5.58859
5.58202
5.57202
5.55895
5.54282
5.52374
5.50192
5.47759
5.45098
5.42238
5.39212
5.36057
5.32817
5.29546
5.26307
5.2318
5.20267
5.17695
5.15627
5.14249
5.13798
5.14473
5.5905
5.58781
5.58207
5.57337
5.56207
5.54812
5.53167
5.51292
5.49209
5.46945
5.44527
5.41991
5.39375
5.36723
5.34089
5.31534
5.29133
5.26976
5.25169
5.23838
5.23119
5.23168
5.24106
5.59157
5.58929
5.5843
5.57678
5.56706
5.55508
5.54098
5.52498
5.50729
5.48816
5.46788
5.44678
5.42525
5.40371
5.38266
5.36268
5.34443
5.32866
5.31624
5.30814
5.30535
5.30896
5.31973
5.59461
5.59268
5.58836
5.5819
5.57359
5.56337
5.55137
5.53781
5.52289
5.50685
5.48996
5.47255
5.45496
5.43761
5.42094
5.40546
5.39175
5.38044
5.37221
5.36782
5.36798
5.37345
5.38474
5.59929
5.59766
5.59395
5.58842
5.58137
5.57271
5.56257
5.55116
5.53867
5.52532
5.51137
5.49711
5.48287
5.46901
5.45594
5.4441
5.43396
5.42606
5.42093
5.41915
5.42124
5.42773
5.43896
5.60534
5.60394
5.60079
5.59609
5.59015
5.58287
5.57437
5.56484
5.55446
5.54344
5.53201
5.52044
5.50902
5.49807
5.48793
5.479
5.47167
5.46636
5.4635
5.46353
5.46683
5.47377
5.48457
5.61251
5.61131
5.60865
5.60468
5.59972
5.59364
5.58657
5.57869
5.57014
5.56112
5.55185
5.54255
5.53348
5.52493
5.51719
5.51058
5.50543
5.50209
5.50088
5.50213
5.50613
5.51313
5.52327
5.6206
5.61956
5.61734
5.614
5.60991
5.60488
5.59905
5.59259
5.58562
5.57832
5.57087
5.56348
5.55638
5.54979
5.54399
5.53923
5.53577
5.5339
5.53386
5.53591
5.54025
5.54706
5.55641
5.62944
5.62853
5.6267
5.62391
5.62056
5.61643
5.61169
5.60644
5.60083
5.59499
5.58908
5.5833
5.57782
5.57285
5.5686
5.56529
5.56314
5.56236
5.56314
5.56568
5.57011
5.57656
5.58505
5.63885
5.63809
5.63657
5.63425
5.63155
5.62821
5.62439
5.6202
5.61573
5.61113
5.60652
5.60207
5.59792
5.59426
5.59126
5.58909
5.58793
5.58794
5.58928
5.59208
5.59643
5.60242
5.61006
5.64872
5.64811
5.64685
5.64494
5.64279
5.64012
5.63709
5.63379
5.6303
5.62673
5.62321
5.61986
5.61681
5.6142
5.61218
5.61089
5.61046
5.61103
5.61271
5.61558
5.61973
5.6252
5.63198
5.65893
5.65849
5.65743
5.65588
5.6542
5.65209
5.64974
5.64719
5.64451
5.64182
5.63919
5.63674
5.63456
5.63279
5.63152
5.63088
5.63097
5.6319
5.63373
5.63654
5.64038
5.64525
5.65114
5.66938
5.66913
5.66824
5.66699
5.6657
5.66408
5.6623
5.66037
5.65838
5.6564
5.6545
5.65276
5.65128
5.65013
5.64943
5.64925
5.64967
5.65077
5.6526
5.65522
5.65863
5.66285
5.66783
5.68
5.67998
5.6792
5.67822
5.67726
5.67604
5.67474
5.67333
5.6719
5.6705
5.66917
5.668
5.66704
5.66636
5.66605
5.66615
5.66674
5.66787
5.66956
5.67186
5.67476
5.67826
5.68233
5.69074
5.69096
5.69024
5.68952
5.68884
5.68796
5.68706
5.68608
5.6851
5.68416
5.68328
5.68253
5.68196
5.68161
5.68153
5.68178
5.6824
5.68342
5.68487
5.68675
5.68908
5.69184
5.69498
5.70155
5.70198
5.70133
5.70085
5.70041
5.69982
5.69924
5.69861
5.698
5.69741
5.69688
5.69645
5.69614
5.696
5.69605
5.69633
5.69687
5.69769
5.6988
5.70021
5.70191
5.70391
5.70614
5.71251
5.71302
5.71243
5.71219
5.71195
5.71162
5.71131
5.71097
5.71064
5.71034
5.71007
5.70987
5.70974
5.70971
5.7098
5.71002
5.71039
5.71093
5.71164
5.71252
5.71357
5.71478
5.71612
5.72319
5.72375
5.72349
5.72344
5.72337
5.72325
5.72317
5.72306
5.72298
5.7229
5.72284
5.7228
5.72279
5.72281
5.72287
5.72298
5.72313
5.72334
5.7236
5.72392
5.72429
5.7247
5.72514
841.949
826.073
809.788
794.462
822.686
792.454
740.803
662.666
435.605
361.043
231.17
87.0869
51.8856
52.1314
53.2938
54.7521
50.3986
50.0025
50.2711
51.3798
51.4985
51.2955
51.8462
53.1654
54.7755
54.6485
55.122
56.2434
57.2916
57.2534
60.5439
62.512
102.769
73.9025
111.931
199.162
622.364
273.568
641.286
754.393
784.43
781.996
782.636
787.949
233.278
719.011
848.468
508.94
2.79593
2.47425
2.24914
2.33924
2.73035
2.61936
2.65922
2.87327
2.67088
2.57648
2.55406
2.56969
2.39444
2.30195
2.49798
2.68299
4.78136
2.14132
2.73814
4.84979
6.54161
6.37111
6.32464
6.33001
3.68104
3.5888
3.5097
3.44021
3.89944
3.90405
3.93087
3.99541
4.40042
4.41371
4.43893
4.48011
4.68451
4.70021
4.72334
4.75518
4.88525
4.90226
4.92407
4.95062
5.03999
5.05513
5.0736
5.09559
5.16043
5.17422
5.19017
5.20885
5.25595
5.26807
5.28259
5.29897
5.33391
5.34502
5.35775
5.37203
5.39799
5.40805
5.41936
5.4319
5.45116
5.46024
5.47034
5.48135
5.49564
5.50371
5.51257
5.52233
5.53324
5.54042
5.54826
5.55676
5.5653
5.57164
5.57854
5.58604
5.59288
5.5984
5.60432
5.61061
5.61693
5.62173
5.62687
5.63234
5.63794
5.64207
5.64647
5.65113
5.65623
5.65973
5.66342
5.66731
5.67205
5.67493
5.67796
5.68113
5.68571
5.688
5.6904
5.69289
5.69757
5.69931
5.70111
5.70298
5.70796
5.70918
5.71043
5.71171
5.7172
5.71791
5.71863
5.71934
5.72548
5.7257
5.72592
5.72612
756.802
681.248
582.442
310.904
467.368
834.221
617.804
41.9064
13.475
6.63996
7.7093
24.3822
438.918
582.688
722.038
825.429
898.743
859.106
1167.25
572.984
379.065
112.602
112.815
193.653
771.021
491.044
16.0942
7.65078
4.54452
6.45096
194.827
565.769
620.381
703.1
594.594
570.037
695.357
1030.6
60.5818
61.0135
91.4056
448.279
592.057
778.01
440.857
8.87281
6.35523
3.73739
25.6434
507.797
684.981
741.555
546.909
366.31
419.574
608.733
968.422
57.3451
59.2973
58.9027
351.906
852.371
853.16
356.993
11.0749
7.23298
4.31593
56.2947
658.149
775.012
836.105
373.445
383.847
440.222
478.362
902.785
54.7254
58.3404
58.6702
122.885
752.164
960.773
406.356
13.9863
8.99002
6.3632
51.3683
519.004
288.437
560.82
520.246
375.783
427.202
502.002
889.688
56.1854
59.0844
59.0019
59.6086
498.15
1054.72
649.687
16.3944
10.9022
9.04518
14.4297
170.474
36.4975
144.578
737.031
865.009
910.505
1079.44
1247.25
58.8948
60.9146
60.36
59.4304
150.193
759.496
852.903
196.392
10.6135
10.6272
11.826
78.8056
27.8338
32.1987
660.723
1167.18
1342.1
1387.11
1353.49
76.6437
102.58
88.2915
60.2572
60.8843
154.167
763.593
771.833
58.2942
13.125
14.0553
88.0831
26.9474
10.2507
9.13682
137.126
506.976
1251.42
1351.29
416.172
639.82
537.228
142.269
61.2882
64.274
203.933
1086.26
804.545
49.0394
16.7798
101.989
32.9373
8.75868
8.31651
8.98735
14.053
308.149
1400.16
753.337
764.813
781.109
780.941
366.069
336.104
915.336
1160.48
1170.41
874.023
345.161
222.167
14.3032
8.19665
7.55479
7.67843
8.51256
61.0442
1320.98
774.796
648.634
538.034
573.734
956.853
1277.72
1280.19
1272.93
1284.04
1268.16
1162.97
417.695
7.81126
7.45498
6.97787
7.04813
7.1674
35.8565
213.708
85.7522
4.40717
4.10571
4.03426
82.4701
473.791
863.925
1027.15
961.462
650.022
531.833
275.555
14.6946
7.29821
6.83911
6.76226
6.74885
7.97618
18.9247
2.77345
3.6915
4.1967
4.51677
4.3706
3.92771
26.512
63.7964
55.563
10.0273
7.49271
15.3255
13.5884
7.42895
7.05837
6.92323
7.03379
7.75703
95.9459
3.46456
3.99546
4.39766
4.3929
4.58532
4.75795
4.84737
5.38307
5.57503
6.24809
6.39425
6.42663
7.32487
7.21916
7.12235
7.12127
7.28175
7.35211
128.375
2.76798
3.36836
3.98765
4.5347
4.97308
5.33831
5.61824
5.8672
6.0736
6.32156
6.4865
6.73751
7.14098
7.0518
7.0758
7.15317
7.27335
7.36167
129.26
3.11978
3.40889
4.03832
4.68556
5.19807
5.58177
5.85061
6.03991
6.18938
6.33286
6.48541
6.70766
6.94488
6.97096
7.01651
7.07799
7.14949
7.41367
10.0938
5.63817
5.47515
4.41329
4.81102
5.2823
5.6215
5.85735
6.02589
6.15993
6.29579
6.44443
6.61585
6.78098
6.86352
6.92026
6.9589
7.0085
7.15999
7.41515
6.32241
5.93457
4.87927
4.97068
5.33321
5.61504
5.81987
5.97745
6.11225
6.24716
6.38452
6.52694
6.658
6.74721
6.81242
6.84518
6.9055
7.59971
7.64955
3.63709
4.08145
4.60482
5.08404
5.36151
5.59416
5.77712
5.92763
6.06142
6.18941
6.31586
6.439
6.55309
6.6422
6.71245
6.74164
6.81116
7.57426
27.6177
4.14834
4.45406
4.81074
5.13158
5.38459
5.58327
5.74645
5.88714
6.0143
6.13399
6.2493
6.35925
6.46621
6.55154
6.62915
6.65645
6.74654
6.65143
168.429
4.57147
4.76483
4.99604
5.22189
5.41769
5.58324
5.72687
5.85534
5.97309
6.0834
6.18856
6.28839
6.38598
6.47137
6.55775
6.58682
6.83779
6.69009
191.54
4.82278
4.95765
5.12309
5.29327
5.45008
5.5902
5.71641
5.83177
5.93855
6.03847
6.13336
6.22389
6.31279
6.39633
6.48421
6.5064
8.25332
6.63256
199.302
5.00344
5.10425
5.22745
5.35861
5.48566
5.60403
5.71359
5.81537
5.91019
5.99869
6.0825
6.1632
6.24437
6.31943
6.40371
6.41999
8.30264
6.54423
206.818
5.13854
5.21803
5.3141
5.41809
5.52194
5.62164
5.71595
5.80452
5.887
5.96308
6.03431
6.10357
6.17524
6.24262
6.31578
6.33409
8.21707
6.44335
214.419
5.24476
5.30944
5.38654
5.47063
5.55646
5.64074
5.72166
5.79797
5.8681
5.9305
5.98685
6.04241
6.10331
6.16477
6.22744
6.25849
6.56194
6.28107
221.913
5.32975
5.38365
5.44704
5.51641
5.58824
5.65985
5.72927
5.79458
5.8525
5.89982
5.93894
5.97913
6.03091
6.08842
6.15027
6.19667
6.25905
6.20742
229.3
5.39862
5.44426
5.49735
5.55553
5.61633
5.67758
5.73742
5.79318
5.83936
5.87139
5.89248
5.91734
5.96134
6.01743
6.08482
6.14269
6.22659
6.14807
236.515
5.45503
5.49405
5.53903
5.58835
5.64023
5.69295
5.74493
5.79269
5.83084
5.85003
5.85189
5.86407
5.90052
5.95859
6.03434
6.1464
6.322
6.10242
243.682
5.50151
5.53503
5.57335
5.61535
5.65976
5.70533
5.75086
5.79291
5.8252
5.83275
5.82325
5.82776
5.85881
5.91418
6.00965
6.47654
6.33259
6.06595
250.805
5.53996
5.56878
5.60147
5.63723
5.67518
5.71451
5.7545
5.79452
5.82106
5.82518
5.81285
5.81538
5.83977
5.88597
5.96103
6.42462
6.08957
6.05155
257.847
5.57204
5.59676
5.62457
5.65488
5.6871
5.72072
5.75541
5.79099
5.81773
5.82336
5.81976
5.82309
5.84566
5.8866
5.9304
5.97937
6.01404
6.09322
264.884
5.59912
5.62021
5.64376
5.66928
5.69632
5.7245
5.75362
5.78182
5.81005
5.82096
5.83705
5.83996
5.90652
5.9469
5.92589
5.88415
5.93385
6.17183
268.927
5.62213
5.64014
5.65998
5.68127
5.7036
5.72659
5.74994
5.77239
5.79229
5.80711
5.86361
5.9284
5.95918
5.95538
5.93568
5.78713
5.7424
10.91
79.574
5.64209
5.6573
5.67384
5.69136
5.70947
5.72772
5.7457
5.76237
5.77639
5.78655
5.83392
5.93731
5.92891
5.86365
5.74027
5.67798
5.67451
12.2256
5.35241
5.65935
5.67201
5.68558
5.69974
5.71411
5.72823
5.74172
5.75364
5.76253
5.76774
5.76794
5.78207
5.77324
5.72741
5.69482
5.63007
5.48719
10.7874
5.41226
5.67412
5.68444
5.6953
5.70643
5.71751
5.72807
5.73791
5.74616
5.75142
5.7535
5.75221
5.74546
5.73411
5.71531
5.68704
5.64106
5.54916
5.42288
5.55293
5.68662
5.69479
5.70318
5.71161
5.71977
5.72727
5.73402
5.73926
5.74197
5.74227
5.74035
5.73463
5.72575
5.71169
5.69488
5.67536
5.65266
5.62892
5.67953
5.69718
5.70337
5.70955
5.71558
5.72119
5.72605
5.73018
5.73292
5.73373
5.73285
5.73043
5.72546
5.71897
5.70942
5.70184
5.69622
5.70121
5.71563
5.74208
5.70615
5.71055
5.71477
5.71867
5.72205
5.72468
5.72661
5.72736
5.72666
5.72477
5.72175
5.71703
5.71168
5.70435
5.70049
5.69763
5.70403
5.71938
5.73082
5.71389
5.71665
5.71911
5.72112
5.72256
5.72331
5.72339
5.72247
5.72038
5.71735
5.71339
5.70822
5.70252
5.69535
5.69089
5.68608
5.68678
5.69242
5.6953
5.72049
5.72192
5.72282
5.72314
5.72285
5.72191
5.72026
5.71771
5.71421
5.70991
5.70476
5.69854
5.69145
5.68298
5.67551
5.66682
5.66121
5.65801
5.65525
5.72643
5.72659
5.72606
5.72482
5.72284
5.72014
5.71668
5.7124
5.70748
5.70194
5.69552
5.68785
5.67878
5.66776
5.65627
5.64129
5.62907
5.61519
5.60504
)
;

boundaryField
{
    leftWall
    {
        type            fixedFluxPressure;
        gradient        uniform 0;
        value           nonuniform List<scalar> 
50
(
571.054
570.526
567.777
563.625
558.962
554.281
549.566
544.308
260.456
49.2002
8.92505
7.88638
7.35661
6.90129
6.60457
6.44948
6.3319
6.20849
6.10867
6.03676
5.96964
5.90173
5.84012
5.78717
5.7421
5.70436
5.67334
5.6483
5.62861
5.61365
5.60287
5.59573
5.59176
5.5905
5.59157
5.59461
5.59929
5.60534
5.61251
5.6206
5.62944
5.63885
5.64872
5.65893
5.66938
5.68
5.69074
5.70155
5.71251
5.72319
)
;
    }
    rightWall
    {
        type            fixedFluxPressure;
        gradient        uniform 0;
        value           nonuniform List<scalar> 
50
(
1480.5
1466.92
1416.62
1211.38
1109.57
1091.92
1077.58
1120.63
1167.25
1030.6
968.422
902.785
889.688
1247.25
1353.49
1351.29
1400.16
1320.98
213.708
18.9247
95.9459
128.375
129.26
10.0938
7.41515
7.64955
27.6177
168.429
191.54
199.302
206.818
214.419
221.913
229.3
236.515
243.682
250.805
257.847
264.884
268.927
79.574
5.35241
5.41226
5.55293
5.67953
5.74208
5.73082
5.6953
5.65525
5.60504
)
;
    }
    lowerWall
    {
        type            fixedFluxPressure;
        gradient        uniform 0;
        value           nonuniform List<scalar> 
62
(
571.054
570.895
572.761
576.917
585.473
601.105
623.808
649.145
673.556
697.339
721.174
745.16
769.014
792.168
813.853
833.32
848.291
857.925
861.457
862.959
875.609
900.198
912.81
912.81
907.722
902.55
897.957
893.721
889.428
886.401
884.226
841.949
826.073
809.788
794.462
699.869
699.744
681.206
657.94
655.018
672.296
632.331
595.299
699.869
591.202
574.662
636.665
700.223
739.524
650.059
577.082
627.492
620.767
485.568
385.647
459.999
877.209
1566.18
2028.62
1909.08
1561.21
1480.5
)
;
    }
    atmosphere
    {
        type            prghTotalPressure;
        rho             rho;
        psi             none;
        gamma           1;
        p0              uniform 0;
        value           nonuniform List<scalar> 
46
(
5.72904
5.72904
5.72904
5.72904
5.72904
5.72904
5.72904
5.72904
5.72904
5.72904
5.72904
5.72904
5.72904
5.72904
5.72904
5.72904
5.72904
5.72904
5.72904
5.72904
5.72904
5.72904
5.72904
5.72904
5.72904
5.72904
5.72904
5.72904
5.7287
5.72747
5.7254
5.72248
5.71886
5.71445
5.70926
5.70369
5.69762
5.69054
5.68199
5.6718
5.65884
5.6456
5.6252
5.61072
5.5876
5.57023
)
;
        rho             rho;
    }
    defaultFaces
    {
        type            empty;
    }
}


// ************************************************************************* //
