/*--------------------------------*- C++ -*----------------------------------*\
  =========                 |
  \\      /  F ield         | OpenFOAM: The Open Source CFD Toolbox
   \\    /   O peration     | Website:  https://openfoam.org
    \\  /    A nd           | Version:  13
     \\/     M anipulation  |
\*---------------------------------------------------------------------------*/
FoamFile
{
    format      ascii;
    class       surfaceScalarField;
    location    "0.75";
    object      phi;
}
// * * * * * * * * * * * * * * * * * * * * * * * * * * * * * * * * * * * * * //

dimensions      [0 3 -1 0 0 0 0];

internalField   nonuniform List<scalar> 
4432
(
-4.05704e-06
4.05704e-06
-8.4612e-06
4.40416e-06
-1.20469e-05
3.58573e-06
-1.51751e-05
3.12817e-06
-1.75354e-05
2.36027e-06
-1.78356e-05
3.00209e-07
-1.58378e-05
-1.99778e-06
-1.29563e-05
-2.88153e-06
-1.08089e-05
-2.14739e-06
-9.87762e-06
-9.31266e-07
-9.958e-06
8.03867e-08
-1.07759e-05
8.17896e-07
-1.20713e-05
1.2954e-06
-1.37398e-05
1.66851e-06
-1.56313e-05
1.89148e-06
-1.70396e-05
1.40831e-06
-1.78082e-05
7.68596e-07
-2.03586e-05
2.55036e-06
-2.5556e-05
5.19746e-06
-2.8425e-05
2.869e-06
-2.36641e-05
-4.76093e-06
-1.22686e-05
-1.13955e-05
-1.22686e-05
-5.61155e-06
9.66859e-06
-1.01062e-05
8.89885e-06
-1.33647e-05
6.84416e-06
-1.63081e-05
6.07162e-06
-1.84524e-05
4.50457e-06
-1.86399e-05
4.87713e-07
-1.65459e-05
-4.09181e-06
-1.33773e-05
-6.0501e-06
-1.09457e-05
-4.57906e-06
-9.83049e-06
-2.04644e-06
-9.64079e-06
-1.09306e-07
-9.98442e-06
1.16151e-06
-1.06496e-05
1.96061e-06
-1.1625e-05
2.64389e-06
-1.31348e-05
3.4013e-06
-1.56732e-05
3.94675e-06
-1.95296e-05
4.62493e-06
-2.35548e-05
6.57562e-06
-2.52782e-05
6.92084e-06
-2.2673e-05
2.63786e-07
-1.66474e-05
-1.07866e-05
-8.58982e-06
-1.94531e-05
-2.08584e-05
-4.92375e-06
1.45923e-05
-8.78836e-06
1.27635e-05
-1.20469e-05
1.01027e-05
-1.54633e-05
9.48802e-06
-1.8221e-05
7.26229e-06
-1.8757e-05
1.0237e-06
-1.68921e-05
-5.95673e-06
-1.39575e-05
-8.98471e-06
-1.15622e-05
-6.97442e-06
-1.03737e-05
-3.23495e-06
-1.01522e-05
-3.30777e-07
-1.03344e-05
1.34372e-06
-1.05141e-05
2.14031e-06
-1.04644e-05
2.59421e-06
-1.02946e-05
3.23151e-06
-1.07003e-05
4.3524e-06
-1.2215e-05
6.13968e-06
-1.37139e-05
8.07448e-06
-1.31611e-05
6.36801e-06
-1.047e-05
-2.42723e-06
-6.83756e-06
-1.4419e-05
-2.98301e-06
-2.33076e-05
-2.38414e-05
-3.58796e-06
1.81803e-05
-6.79751e-06
1.5973e-05
-9.8852e-06
1.31904e-05
-1.29965e-05
1.25993e-05
-1.52842e-05
9.55006e-06
-1.58359e-05
1.57537e-06
-1.47696e-05
-7.02303e-06
-1.32444e-05
-1.05099e-05
-1.19455e-05
-8.27341e-06
-1.11467e-05
-4.03366e-06
-1.10118e-05
-4.65761e-07
-1.12636e-05
1.59556e-06
-1.14734e-05
2.35012e-06
-1.12437e-05
2.36455e-06
-1.03874e-05
2.37513e-06
-9.02442e-06
2.98945e-06
-7.29276e-06
4.40801e-06
-4.96281e-06
5.74454e-06
-2.05854e-06
3.46373e-06
5.76755e-07
-5.06252e-06
1.52155e-06
-1.53638e-05
1.40532e-06
-2.31914e-05
-2.24361e-05
-1.83434e-06
2.00146e-05
-3.90489e-06
1.80436e-05
-6.12977e-06
1.54153e-05
-8.0441e-06
1.45136e-05
-9.02158e-06
1.05275e-05
-9.2262e-06
1.77998e-06
-9.54806e-06
-6.70116e-06
-1.05198e-05
-9.53815e-06
-1.14973e-05
-7.29593e-06
-1.18719e-05
-3.65905e-06
-1.20446e-05
-2.9306e-07
-1.23059e-05
1.85684e-06
-1.24774e-05
2.52161e-06
-1.2207e-05
2.09423e-06
-1.12816e-05
1.44964e-06
-9.61406e-06
1.32194e-06
-6.86598e-06
1.65994e-06
-2.87997e-06
1.75853e-06
1.36219e-06
-7.78435e-07
4.24102e-06
-7.94134e-06
4.28819e-06
-1.5411e-05
2.89011e-06
-2.17933e-05
-1.9546e-05
3.2276e-07
1.96919e-05
7.48545e-08
1.82915e-05
-8.11619e-07
1.63018e-05
-1.2628e-06
1.49648e-05
-6.79544e-07
9.94429e-06
-4.41284e-07
1.54171e-06
-2.78476e-06
-4.35768e-06
-6.75657e-06
-5.56634e-06
-1.0321e-05
-3.73147e-06
-1.23094e-05
-1.67068e-06
-1.30905e-05
4.88003e-07
-1.34408e-05
2.20714e-06
-1.35104e-05
2.59126e-06
-1.3051e-05
1.6348e-06
-1.19649e-05
3.63549e-07
-1.03539e-05
-2.89067e-07
-8.00708e-06
-6.86843e-07
-4.64704e-06
-1.60151e-06
-8.07985e-07
-4.61749e-06
2.10678e-06
-1.08561e-05
2.77316e-06
-1.60774e-05
2.40507e-06
-2.14252e-05
-1.71409e-05
2.27684e-06
1.7415e-05
3.90251e-06
1.66658e-05
5.4807e-06
1.47236e-05
7.40816e-06
1.30373e-05
8.72875e-06
8.62369e-06
7.27457e-06
2.99589e-06
2.19622e-06
7.20669e-07
-4.15258e-06
7.82446e-07
-9.30491e-06
1.42085e-06
-1.25024e-05
1.52677e-06
-1.40455e-05
2.03115e-06
-1.46434e-05
2.805e-06
-1.46363e-05
2.58418e-06
-1.39278e-05
9.263e-07
-1.25038e-05
-1.06045e-06
-1.0724e-05
-2.0689e-06
-8.61709e-06
-2.79373e-06
-5.99698e-06
-4.22162e-06
-3.02111e-06
-7.59336e-06
-4.57974e-07
-1.34192e-05
9.27674e-07
-1.7463e-05
1.69535e-06
-2.21929e-05
-1.54456e-05
4.28228e-06
1.31328e-05
9.07743e-06
1.18707e-05
1.3162e-05
1.0639e-05
1.56898e-05
1.05096e-05
1.46823e-05
9.63118e-06
9.14116e-06
8.53699e-06
1.48439e-06
8.37744e-06
-5.10262e-06
7.36946e-06
-9.48788e-06
5.80611e-06
-1.23421e-05
4.38097e-06
-1.42986e-05
3.98771e-06
-1.54647e-05
3.9711e-06
-1.5765e-05
2.88441e-06
-1.49986e-05
1.59929e-07
-1.32222e-05
-2.8369e-06
-1.11971e-05
-4.094e-06
-9.06486e-06
-4.92593e-06
-6.69084e-06
-6.59563e-06
-3.98232e-06
-1.03019e-05
-1.4027e-06
-1.59989e-05
9.1952e-07
-1.97852e-05
2.24267e-06
-2.3516e-05
-1.32029e-05
-1.97831e-05
1.97831e-05
-4.37619e-05
2.39787e-05
-4.51036e-05
1.3417e-06
-3.11721e-05
-1.39314e-05
-1.33697e-05
-1.78025e-05
1.29615e-05
-2.63312e-05
3.00654e-05
-1.71039e-05
2.41558e-05
5.90955e-06
1.90046e-06
2.22554e-05
-4.26227e-05
4.45232e-05
-8.64635e-05
4.38407e-05
-0.000111059
2.45959e-05
-0.000125091
1.40318e-05
-0.000128703
3.61165e-06
-0.0001094
-1.93025e-05
-6.44874e-05
-4.49129e-05
-2.34457e-05
-4.10417e-05
2.3834e-06
-2.58291e-05
2.3834e-06
-2.68385e-05
4.66216e-05
-3.88167e-05
3.5957e-05
-3.21723e-05
-5.30273e-06
-1.83906e-05
-2.77131e-05
-3.48348e-07
-3.58447e-05
1.98431e-05
-4.65227e-05
3.15555e-05
-2.88162e-05
1.08836e-05
2.65815e-05
-4.4881e-05
7.80199e-05
-0.000101045
0.000100687
-0.000133566
7.63615e-05
-0.000152456
4.34862e-05
-0.000170539
3.21151e-05
-0.000174778
7.84994e-06
-0.000135771
-5.83087e-05
-6.71222e-05
-0.000113562
-2.76183e-05
-8.05455e-05
-1.77932e-05
-3.56542e-05
-1.54098e-05
-2.0663e-05
6.72846e-05
-2.55955e-05
4.08895e-05
-1.76173e-05
-1.3281e-05
-5.62855e-06
-3.97018e-05
7.3343e-06
-4.88076e-05
2.0864e-05
-6.00524e-05
1.38526e-05
-2.18048e-05
-2.84747e-05
6.89088e-05
-8.9251e-05
0.000138796
-0.000166412
0.000177848
-0.000281909
0.000191859
-0.000360011
0.000121589
-0.000337324
9.42812e-06
-0.000233189
-9.62853e-05
-9.41632e-05
-0.000197335
-2.61303e-06
-0.000205112
1.97823e-05
-0.000102941
-5.32286e-06
-1.0549e-05
-2.07326e-05
-9.68711e-06
7.69717e-05
-8.53463e-06
3.9737e-05
-6.86713e-07
-2.11289e-05
7.82499e-06
-4.82136e-05
1.1793e-05
-5.27756e-05
1.16805e-05
-5.99398e-05
-1.24569e-05
2.33257e-06
-6.1573e-05
0.000118025
-0.000135958
0.000213181
-0.000265303
0.000307193
-0.000368902
0.000295458
-0.000334372
8.70591e-05
-0.000220029
-0.000104916
-9.8023e-05
-0.000218291
-1.73817e-05
-0.000277976
1.1961e-05
-0.000234455
7.439e-05
-0.00016537
4.09997e-05
2.28412e-05
2.02671e-05
1.79889e-06
7.51729e-05
1.10421e-05
3.04939e-05
1.6763e-05
-2.68498e-05
2.22907e-05
-5.37413e-05
1.43151e-05
-4.48e-05
-5.43917e-06
-4.01855e-05
-4.31949e-05
4.00883e-05
-0.000101039
0.000175868
-0.000200205
0.000312347
-0.00031389
0.000420878
-0.000304789
0.000286356
-0.000203915
-1.38147e-05
-0.000111814
-0.000197016
-2.81555e-05
-0.00030195
7.06895e-06
-0.0003132
1.71937e-05
-0.00024458
4.229e-05
-0.000190466
5.66337e-05
8.49745e-06
7.69008e-05
1.04798e-05
6.46931e-05
2.48931e-05
1.60806e-05
3.53143e-05
-3.72711e-05
3.62671e-05
-5.4694e-05
1.64096e-05
-2.49424e-05
-1.79982e-05
-5.77772e-06
-6.31979e-05
8.5288e-05
-0.000131974
0.000244644
-0.000243034
0.000423408
-0.00029816
0.000476004
-0.00022213
0.000210326
-0.00011897
-0.000116975
-3.84605e-05
-0.000277526
5.15901e-06
-0.000345569
1.10175e-05
-0.000319059
1.70479e-05
-0.00025061
1.83683e-05
-0.000191786
6.16994e-06
2.06958e-05
8.30707e-05
1.84455e-05
4.62476e-05
3.70492e-05
-2.52314e-06
4.93679e-05
-4.95898e-05
4.48786e-05
-5.02047e-05
1.72303e-05
2.70588e-06
-2.62681e-05
3.77207e-05
-7.74432e-05
0.000136463
-0.000159964
0.000327165
-0.000250861
0.000514305
-0.000235112
0.000460256
-0.000136965
0.000112179
-5.43605e-05
-0.000199579
-4.67863e-06
-0.000327208
7.90383e-06
-0.000358152
7.89213e-06
-0.000319047
1.15088e-05
-0.000254227
1.21279e-06
-0.000181491
-4.31388e-05
6.50475e-05
3.99319e-05
2.84712e-05
1.77764e-05
4.63841e-05
-2.04361e-05
5.41189e-05
-5.73246e-05
4.64425e-05
-4.25283e-05
1.57806e-05
3.33678e-05
-2.85194e-05
8.20207e-05
-8.16894e-05
0.000189633
-0.000173386
0.000418861
-0.000228847
0.000569766
-0.000173067
0.000404476
-8.37249e-05
2.28368e-05
-2.03189e-05
-0.000262985
9.97737e-07
-0.000348524
3.72364e-06
-0.000360878
3.1952e-06
-0.000318519
4.87054e-06
-0.000255902
-1.25602e-05
-0.00016406
-3.9534e-05
9.20213e-05
3.97876e-07
2.57907e-06
1.05537e-05
-2.3057e-06
1.67554e-05
-8.54268e-06
1.6876e-05
-1.46602e-05
1.66271e-05
-2.08845e-05
1.58555e-05
-2.60321e-05
1.36846e-05
-2.82879e-05
1.06332e-05
-2.86099e-05
7.69145e-06
-2.83112e-05
5.50739e-06
-2.87848e-05
4.85458e-06
-3.05933e-05
5.79624e-06
-3.27744e-05
6.15217e-06
-3.34723e-05
3.58232e-06
-3.05624e-05
-2.74995e-06
-2.56738e-05
-7.72547e-06
-2.17454e-05
-8.02241e-06
-1.83316e-05
-8.33973e-06
-1.41255e-05
-1.08017e-05
-8.30643e-06
-1.6121e-05
-1.02289e-06
-2.32824e-05
7.18087e-06
-2.7989e-05
1.21745e-05
-2.85096e-05
-2.20053e-05
2.09769e-05
-9.28355e-05
0.000103389
-9.749e-05
2.141e-05
-9.1967e-05
1.1353e-05
-8.85069e-05
1.3167e-05
-8.71427e-05
1.44913e-05
-8.49443e-05
1.14862e-05
-8.05237e-05
6.21259e-06
-7.36916e-05
8.59406e-07
-6.16552e-05
-6.52909e-06
-4.83401e-05
-8.46048e-06
-4.01485e-05
-2.39538e-06
-3.59256e-05
1.92929e-06
-3.23598e-05
1.64551e-08
-2.84674e-05
-6.64232e-06
-2.39177e-05
-1.22752e-05
-2.06931e-05
-1.1247e-05
-1.90991e-05
-9.93366e-06
-1.71448e-05
-1.27561e-05
-1.29353e-05
-2.03304e-05
-5.47329e-06
-3.07444e-05
5.05551e-06
-3.85178e-05
1.10513e-05
-3.45054e-05
-2.26885e-05
1.17345e-05
-8.25843e-05
0.000185974
-0.000145997
8.48222e-05
-0.000202335
6.76918e-05
-0.00024572
5.65518e-05
-0.000272231
4.10027e-05
-0.00028531
2.45643e-05
-0.000287787
8.69039e-06
-0.000272587
-1.43414e-05
-0.000236018
-4.30983e-05
-0.000186736
-5.77423e-05
-0.0001521
-3.70308e-05
-0.000149125
-1.04582e-06
-0.000149526
4.17296e-07
-0.000141665
-1.45035e-05
-0.000128116
-2.58241e-05
-0.000114553
-2.48101e-05
-0.000102716
-2.17709e-05
-9.13828e-05
-2.40888e-05
-7.93643e-05
-3.23489e-05
-5.92137e-05
-5.0895e-05
-2.2679e-05
-7.50525e-05
5.89797e-06
-6.30825e-05
-4.59519e-05
2.91614e-05
-6.96565e-05
0.00025563
-0.000139999
0.000155165
-0.000207208
0.000134901
-0.000260706
0.00011005
-0.000308949
8.92454e-05
-0.000359698
7.53139e-05
-0.000409499
5.84906e-05
-0.000446414
2.25745e-05
-0.000455056
-3.44566e-05
-0.000440172
-7.26263e-05
-0.000420559
-5.66438e-05
-0.000389609
-3.19966e-05
-0.000355984
-3.32069e-05
-0.000329685
-4.08027e-05
-0.000311072
-4.44374e-05
-0.000287182
-4.86996e-05
-0.000255273
-5.36801e-05
-0.000222962
-5.63998e-05
-0.000188912
-6.63991e-05
-0.000123803
-0.000116004
2.77684e-05
-0.000226624
0.000189829
-0.000225143
-0.000178465
0.000322343
-4.73249e-05
0.000302955
-0.000100704
0.000208544
-0.000136113
0.00017031
-0.000154753
0.00012869
-0.00016077
9.52627e-05
-0.000165888
8.0432e-05
-0.000178278
7.08802e-05
-0.00020579
5.00868e-05
-0.00024686
6.61314e-06
-0.000278385
-4.1101e-05
-0.00029529
-3.97386e-05
-0.000303722
-2.35645e-05
-0.000329236
-7.69357e-06
-0.00038836
1.83218e-05
-0.000432952
1.54767e-07
-0.000415738
-6.59136e-05
-0.000342168
-0.000127251
-0.000266753
-0.000131815
-0.000215763
-0.000117389
-0.000189404
-0.000142363
-0.000195731
-0.000220297
-0.000131621
-0.000289254
-0.000235836
-7.42499e-05
-1.90705e-05
0.000322026
-5.29576e-05
0.000242431
-6.10374e-05
0.00017839
-5.94094e-05
0.000127062
-5.19424e-05
8.77956e-05
-4.34491e-05
7.19387e-05
-3.905e-05
6.6481e-05
-5.65178e-05
6.75545e-05
-0.00010748
5.7575e-05
-0.000185831
3.72505e-05
-0.000256788
3.12188e-05
-0.000317335
3.69823e-05
-0.00037733
5.23014e-05
-0.000403165
4.41566e-05
-0.000390074
-1.2936e-05
-0.000336573
-0.000119414
-0.000283647
-0.000180177
-0.000245683
-0.000169779
-0.000216142
-0.00014693
-0.000214572
-0.000143934
-0.000258095
-0.000176773
-0.000324928
-0.000222421
-0.000204438
-0.000356326
1.8998e-05
0.000303028
-1.32833e-06
0.000262757
-6.88704e-06
0.000183949
1.99247e-06
0.000118182
4.45024e-06
8.53378e-05
2.70003e-06
7.36889e-05
-6.14869e-07
6.97959e-05
-8.80198e-06
7.57416e-05
-3.67373e-05
8.55103e-05
-8.94567e-05
8.99698e-05
-0.000152343
9.41056e-05
-0.000214168
9.88072e-05
-0.000262203
0.000100336
-0.000294257
7.621e-05
-0.000308514
1.32168e-06
-0.000319223
-0.000108706
-0.000304075
-0.000195324
-0.000278833
-0.000195021
-0.000253479
-0.000172284
-0.000251485
-0.000145928
-0.000295022
-0.000133236
-0.000413006
-0.000104437
-0.000123513
-0.000493931
4.92832e-05
0.000253744
4.5432e-05
0.000266608
4.07701e-05
0.000188611
3.75444e-05
0.000121408
3.32154e-05
8.96668e-05
2.3393e-05
8.35113e-05
1.0078e-05
8.31109e-05
-1.51922e-06
8.73388e-05
-1.3585e-05
9.75761e-05
-3.54365e-05
0.000111821
-6.72573e-05
0.000125926
-0.000103621
0.000135171
-0.000138688
0.000135404
-0.000176386
0.000113908
-0.000222133
4.70683e-05
-0.000266528
-6.4311e-05
-0.000300472
-0.00016138
-0.000291413
-0.00020408
-0.000272276
-0.000191421
-0.000262686
-0.000155517
-0.000281421
-0.000114501
-0.000301912
-8.3946e-05
-8.29643e-05
-0.000342461
5.18841e-05
0.00020186
7.236e-05
0.000246132
7.10299e-05
0.000189941
6.07173e-05
0.000131721
4.733e-05
0.000103054
3.23836e-05
9.84576e-05
1.58175e-05
9.96768e-05
1.21154e-06
0.000101945
-7.51796e-06
0.000106305
-1.45708e-05
0.000118874
-2.46147e-05
0.00013597
-3.83586e-05
0.000148915
-5.59768e-05
0.000153022
-8.62599e-05
0.000144191
-0.000141126
0.000101935
-0.000215527
1.00897e-05
-0.000274866
-0.000102042
-0.000299186
-0.00017976
-0.000281321
-0.000209286
-0.000254101
-0.000182737
-0.000230908
-0.000137695
-0.000219927
-9.49274e-05
-7.40268e-05
-0.000228864
3.20836e-05
0.000169777
6.45836e-05
0.000213633
7.35421e-05
0.000180982
6.45806e-05
0.000140682
4.8731e-05
0.000118904
3.31435e-05
0.000114045
1.83806e-05
0.00011444
5.09021e-06
0.000115235
-4.08648e-06
0.000115482
-8.10126e-06
0.000122889
-9.55963e-06
0.000137429
-1.12918e-05
0.000150647
-1.56158e-05
0.000157346
-3.03745e-05
0.000158949
-7.21397e-05
0.0001437
-0.000148483
8.64325e-05
-0.000237867
-1.26572e-05
-0.000295903
-0.000121724
-0.000313502
-0.000191688
-0.000279655
-0.000216584
-0.000231369
-0.000185981
-0.000181244
-0.000145053
-0.000111433
-0.000143837
1.1039e-05
0.000158738
4.24609e-05
0.000182211
5.69821e-05
0.000166461
5.33176e-05
0.000144347
4.16138e-05
0.000130607
2.99512e-05
0.000125708
1.93446e-05
0.000125046
9.39641e-06
0.000125183
8.20999e-07
0.000124057
-3.73643e-06
0.000127446
-3.51133e-06
0.000137203
-1.01568e-06
0.000148151
7.35967e-07
0.000155594
-2.6646e-06
0.00016235
-2.34958e-05
0.000164531
-7.59639e-05
0.0001389
-0.000160344
7.1723e-05
-0.000257377
-2.46913e-05
-0.000322535
-0.00012653
-0.000343812
-0.000195306
-0.000312615
-0.000217179
-0.000253553
-0.000204114
-0.000166196
-0.00019879
1.96702e-06
0.000156771
2.48275e-05
0.00015935
3.79412e-05
0.000153347
3.8382e-05
0.000143906
3.27293e-05
0.00013626
2.64069e-05
0.00013203
2.03178e-05
0.000131135
1.41797e-05
0.000131321
7.65463e-06
0.000130582
3.18154e-06
0.000131919
2.89441e-06
0.000137491
5.67277e-06
0.000145373
8.66364e-06
0.000152604
1.00081e-05
0.000161005
3.85708e-06
0.000170682
-2.35096e-05
0.000166267
-8.00972e-05
0.000128311
-0.000160911
5.61224e-05
-0.000255546
-3.18951e-05
-0.000344577
-0.000106275
-0.000388819
-0.000172937
-0.000378064
-0.000214869
-0.000216445
-0.000327815
1.50931e-06
0.000155261
1.54867e-05
0.000145373
2.47717e-05
0.000144062
2.73364e-05
0.000141341
2.629e-05
0.000137306
2.41586e-05
0.000134161
2.17333e-05
0.000133561
1.89848e-05
0.00013407
1.53181e-05
0.000134249
1.21157e-05
0.000135122
1.1464e-05
0.000138142
1.33367e-05
0.0001435
1.57452e-05
0.000150195
1.80758e-05
0.000158675
1.90894e-05
0.000169668
8.97415e-06
0.000176382
-2.51174e-05
0.000162402
-8.04345e-05
0.000111439
-0.000143722
3.13924e-05
-0.000219802
-3.0195e-05
-0.000309424
-8.33147e-05
-0.000392536
-0.000131757
-0.000163696
-0.000445286
3.10403e-06
0.000152157
1.1385e-05
0.000137092
1.78261e-05
0.000137621
2.12937e-05
0.000137873
2.27865e-05
0.000135814
2.3208e-05
0.00013374
2.3283e-05
0.000133486
2.30956e-05
0.000134257
2.21792e-05
0.000135166
2.10261e-05
0.000136275
2.08379e-05
0.000138331
2.21154e-05
0.000142223
2.40701e-05
0.00014824
2.63479e-05
0.000156397
2.9332e-05
0.000166684
2.86758e-05
0.000177039
1.10466e-05
0.000180031
-3.58969e-05
0.000158383
-9.42789e-05
8.97743e-05
-0.000146367
2.18927e-05
-0.000219301
-1.03801e-05
-0.000315372
-3.56857e-05
-7.65648e-05
-0.000402503
3.83582e-06
0.000148322
9.60473e-06
0.000131323
1.46867e-05
0.000132539
1.84571e-05
0.000134103
2.11102e-05
0.000133161
2.29612e-05
0.000131889
2.45899e-05
0.000131857
2.61344e-05
0.000132712
2.73345e-05
0.000133965
2.82079e-05
0.000135401
2.91751e-05
0.000137363
3.0745e-05
0.000140653
3.29842e-05
0.000146001
3.58226e-05
0.000153559
3.963e-05
0.000162877
4.33243e-05
0.000173344
3.93982e-05
0.000183957
1.0362e-05
0.000187419
-4.9665e-05
0.000149801
-0.000104088
7.63155e-05
-0.000150008
3.55398e-05
-0.000218286
3.25926e-05
7.70275e-06
-0.000302554
3.92205e-06
0.0001444
8.696e-06
0.000126549
1.32597e-05
0.000127976
1.71132e-05
0.00013025
2.02999e-05
0.000129974
2.29696e-05
0.000129219
2.55371e-05
0.000129289
2.81662e-05
0.000130083
3.07649e-05
0.000131367
3.32096e-05
0.000132957
3.55522e-05
0.000135021
3.81258e-05
0.000138079
4.13732e-05
0.000142754
4.5586e-05
0.000149346
5.09539e-05
0.000157509
5.75357e-05
0.000166763
6.35801e-05
0.000177913
5.90534e-05
0.000191946
1.85757e-05
0.000190279
-4.2529e-05
0.00013742
-8.33881e-05
7.6399e-05
-0.000102718
5.19228e-05
4.1057e-05
-0.000136073
3.88957e-06
0.00014051
8.16694e-06
0.000122272
1.25131e-05
0.00012363
1.64077e-05
0.000126355
1.98969e-05
0.000126485
2.30793e-05
0.000126037
2.62292e-05
0.00012614
2.95156e-05
0.000126797
3.29552e-05
0.000127927
3.64655e-05
0.000129446
4.00314e-05
0.000131455
4.38744e-05
0.000134236
4.84808e-05
0.000138147
5.43694e-05
0.000143457
6.18388e-05
0.00015004
7.11473e-05
0.000157454
8.30445e-05
0.000166016
9.65996e-05
0.000178391
9.43018e-05
0.000192577
5.47916e-05
0.00017693
3.91081e-06
0.00012728
-2.1811e-05
7.76446e-05
4.35535e-05
-2.43075e-05
3.91315e-06
0.000136597
7.87799e-06
0.000118307
1.20917e-05
0.000119416
1.60239e-05
0.000122423
1.97212e-05
0.000122788
2.3253e-05
0.000122505
2.67977e-05
0.000122595
3.05008e-05
0.000123094
3.44446e-05
0.000123984
3.86371e-05
0.000125254
4.31236e-05
0.000126969
4.81006e-05
0.000129259
5.39784e-05
0.00013227
6.13106e-05
0.000136125
7.05725e-05
0.000140778
8.21367e-05
0.00014589
9.7009e-05
0.000151143
0.00011802
0.00015738
0.00014267
0.000167927
0.000147792
0.000171808
0.000126431
0.000148641
9.97444e-05
0.000104331
5.47649e-05
8.8533e-05
3.96797e-06
0.000132629
7.74346e-06
0.000114532
1.18604e-05
0.000115299
1.58249e-05
0.000118459
1.9669e-05
0.000118944
2.34493e-05
0.000118725
2.72847e-05
0.00011876
3.12885e-05
0.00011909
3.55665e-05
0.000119706
4.02021e-05
0.000120618
4.53066e-05
0.000121864
5.1081e-05
0.000123485
5.7855e-05
0.000125496
6.6094e-05
0.000127886
7.63084e-05
0.000130564
8.89545e-05
0.000133244
0.000104708
0.00013539
0.000125699
0.000136389
0.00015599
0.000137636
0.000189074
0.000138723
0.000208958
0.000128757
0.000212588
0.000100701
5.58867e-05
0.000211466
4.00347e-06
0.000128626
7.68008e-06
0.000110856
1.17247e-05
0.000111255
1.57104e-05
0.000114473
1.96513e-05
0.000115003
2.36027e-05
0.000114774
2.76515e-05
0.000114711
3.18852e-05
0.000114857
3.64083e-05
0.000115183
4.13358e-05
0.000115691
4.68102e-05
0.00011639
5.30251e-05
0.00011727
6.02409e-05
0.00011828
6.88019e-05
0.000119325
7.91195e-05
0.000120246
9.16035e-05
0.00012076
0.00010665
0.000120343
0.000124944
0.000118095
0.000149174
0.000113406
0.000181153
0.000106744
0.000213958
9.59525e-05
0.000238984
7.56746e-05
4.10294e-05
0.000253841
4.00348e-06
0.000124622
7.62684e-06
0.000107232
1.16117e-05
0.00010727
1.5602e-05
0.000110483
1.95963e-05
0.000111009
2.36517e-05
0.000110718
2.78392e-05
0.000110523
3.22305e-05
0.000110466
3.69186e-05
0.000110495
4.20176e-05
0.000110592
4.76637e-05
0.000110744
5.40252e-05
0.000110909
6.13006e-05
0.000111005
6.97261e-05
0.0001109
7.95723e-05
0.0001104
9.11111e-05
0.000109221
0.000104536
0.000106918
0.000119835
0.000102796
0.000137338
9.59032e-05
0.00015838
8.57015e-05
0.000182372
7.19606e-05
0.000204198
5.38486e-05
2.82133e-05
0.000217014
3.97269e-06
0.00012065
7.5515e-06
0.000103654
1.14742e-05
0.000103347
1.54483e-05
0.000106509
1.94567e-05
0.000107
2.35555e-05
0.00010662
2.78068e-05
0.000106272
3.2273e-05
0.000105999
3.70333e-05
0.000105734
4.21846e-05
0.000105441
4.78408e-05
0.000105088
5.41333e-05
0.000104616
6.1205e-05
0.000103933
6.92076e-05
0.000102897
7.82936e-05
0.000101313
8.85947e-05
9.89193e-05
0.000100159
9.5354e-05
0.000112817
9.01374e-05
0.000126102
8.26185e-05
0.000139666
7.21376e-05
0.000153332
5.82938e-05
0.000165652
4.15293e-05
2.08356e-05
0.000173029
3.91847e-06
0.000116732
7.4407e-06
0.000100132
1.12883e-05
9.94999e-05
1.52212e-05
0.000102576
1.92067e-05
0.000103015
2.32953e-05
0.000102531
2.75415e-05
0.000102026
3.20003e-05
0.000101541
3.67376e-05
0.000100997
4.18302e-05
0.000100348
4.7366e-05
9.9552e-05
5.34391e-05
9.8543e-05
6.01455e-05
9.72266e-05
6.7574e-05
9.54685e-05
7.57961e-05
9.3091e-05
8.48456e-05
8.98698e-05
9.46791e-05
8.55204e-05
0.000105111
7.97052e-05
0.000115695
7.20345e-05
0.00012572
6.21128e-05
0.000134442
4.95721e-05
0.00014122
3.4751e-05
1.75001e-05
0.000144556
3.84511e-06
0.000112886
7.29167e-06
9.6685e-05
1.10447e-05
9.57467e-05
1.49091e-05
9.87117e-05
1.88367e-05
9.90874e-05
2.28685e-05
9.84995e-05
2.70515e-05
9.78431e-05
3.14325e-05
9.71595e-05
3.60656e-05
9.63642e-05
4.10091e-05
9.54044e-05
4.63271e-05
9.4234e-05
5.20823e-05
9.27878e-05
5.83331e-05
9.09757e-05
6.51231e-05
8.86783e-05
7.24714e-05
8.57427e-05
8.03542e-05
8.19869e-05
8.86794e-05
7.71951e-05
9.72548e-05
7.11297e-05
0.000105739
6.35503e-05
0.000113594
5.4258e-05
0.000120088
4.30772e-05
0.000124604
3.02358e-05
1.57276e-05
0.000126376
3.75502e-06
0.000109131
7.10655e-06
9.33334e-05
1.07438e-05
9.21094e-05
1.45119e-05
9.49435e-05
1.8349e-05
9.52503e-05
2.2284e-05
9.45645e-05
2.63566e-05
9.37705e-05
3.06059e-05
9.29103e-05
3.50736e-05
9.18965e-05
3.98033e-05
9.06747e-05
4.48384e-05
8.91989e-05
5.02177e-05
8.74084e-05
5.59711e-05
8.52222e-05
6.21111e-05
8.25382e-05
6.86227e-05
7.9231e-05
7.54519e-05
7.51576e-05
8.24862e-05
7.01607e-05
8.95382e-05
6.40777e-05
9.6327e-05
5.67614e-05
0.000102473
4.81125e-05
0.00010747
3.80801e-05
0.000110838
2.68673e-05
1.44807e-05
0.000112085
3.65077e-06
0.000105481
6.88992e-06
9.00941e-05
1.03918e-05
8.86074e-05
1.40371e-05
9.12982e-05
1.77539e-05
9.15335e-05
2.15586e-05
9.07598e-05
2.54834e-05
8.98457e-05
2.95604e-05
8.88334e-05
3.38203e-05
8.76366e-05
3.82938e-05
8.62013e-05
4.30081e-05
8.44846e-05
4.79844e-05
8.24322e-05
5.32316e-05
7.99749e-05
5.87417e-05
7.70281e-05
6.448e-05
7.34925e-05
7.03786e-05
6.9259e-05
7.63232e-05
6.42159e-05
8.21442e-05
5.82567e-05
8.76094e-05
5.12961e-05
9.2432e-05
4.32899e-05
9.627e-05
3.42421e-05
9.88007e-05
2.43367e-05
1.35921e-05
9.96893e-05
3.53629e-06
0.000101944
6.64727e-06
8.6983e-05
9.99745e-06
8.52572e-05
1.34964e-05
8.77993e-05
1.7067e-05
8.7963e-05
2.07139e-05
8.71131e-05
2.44621e-05
8.60975e-05
2.83371e-05
8.49585e-05
3.23607e-05
8.36129e-05
3.65527e-05
8.20093e-05
4.09282e-05
8.01091e-05
4.54947e-05
7.78656e-05
5.02477e-05
7.52218e-05
5.51663e-05
7.21095e-05
6.02064e-05
6.84523e-05
6.52961e-05
6.41692e-05
7.03291e-05
5.91829e-05
7.51592e-05
5.34266e-05
7.95994e-05
4.68558e-05
8.34288e-05
3.94605e-05
8.64027e-05
3.12681e-05
8.83028e-05
2.24365e-05
1.29869e-05
8.8908e-05
3.41668e-06
9.85274e-05
6.38361e-06
8.40161e-05
9.57007e-06
8.20708e-05
1.29037e-05
8.44657e-05
1.63068e-05
8.45599e-05
1.97745e-05
8.36454e-05
2.33248e-05
8.25473e-05
2.69769e-05
8.13064e-05
3.0746e-05
7.98438e-05
3.46431e-05
7.81122e-05
3.86742e-05
7.6078e-05
4.28374e-05
7.37024e-05
4.71196e-05
7.09395e-05
5.14929e-05
6.77361e-05
5.59105e-05
6.40346e-05
6.03027e-05
5.97769e-05
6.45744e-05
5.4911e-05
6.86031e-05
4.93978e-05
7.224e-05
4.32189e-05
7.5316e-05
3.63844e-05
7.7652e-05
2.89321e-05
7.90965e-05
2.0992e-05
1.25797e-05
7.95037e-05
3.29862e-06
9.52287e-05
6.10231e-06
8.12124e-05
9.11671e-06
7.90565e-05
1.22709e-05
8.13116e-05
1.54914e-05
8.13394e-05
1.87647e-05
8.03722e-05
2.21024e-05
7.92097e-05
2.55188e-05
7.78901e-05
2.90234e-05
7.63392e-05
3.26208e-05
7.45149e-05
3.63104e-05
7.23883e-05
4.00843e-05
6.99285e-05
4.39246e-05
6.70992e-05
4.78007e-05
6.38599e-05
5.16665e-05
6.01687e-05
5.54581e-05
5.59853e-05
5.90925e-05
5.12766e-05
6.24684e-05
4.60218e-05
6.54677e-05
4.02195e-05
6.79614e-05
3.38907e-05
6.98171e-05
2.70763e-05
7.0927e-05
1.98821e-05
1.23149e-05
7.11918e-05
3.19087e-06
9.20379e-05
5.80658e-06
7.85967e-05
8.64064e-06
7.62224e-05
1.16071e-05
7.83452e-05
1.46368e-05
7.83097e-05
1.77062e-05
7.73028e-05
2.08231e-05
7.60929e-05
2.39976e-05
7.47156e-05
2.72348e-05
7.31021e-05
3.05346e-05
7.12151e-05
3.38925e-05
6.90303e-05
3.72969e-05
6.65241e-05
4.07275e-05
6.36685e-05
4.41537e-05
6.04337e-05
4.75323e-05
5.67901e-05
5.08064e-05
5.27112e-05
5.39055e-05
4.81775e-05
5.67462e-05
4.31811e-05
5.92354e-05
3.77302e-05
6.12742e-05
3.18518e-05
6.27635e-05
2.55869e-05
6.36243e-05
1.90212e-05
1.21531e-05
6.37861e-05
3.10111e-06
8.89368e-05
5.50375e-06
7.61941e-05
8.14419e-06
7.3582e-05
1.09196e-05
7.55698e-05
1.3755e-05
7.54744e-05
1.6616e-05
7.44417e-05
1.95091e-05
7.31998e-05
2.24413e-05
7.17834e-05
2.54144e-05
7.01291e-05
2.84257e-05
6.82037e-05
3.14678e-05
6.59883e-05
3.45269e-05
6.34649e-05
3.75826e-05
6.06128e-05
4.06057e-05
5.74107e-05
4.35571e-05
5.38388e-05
4.63874e-05
4.98809e-05
4.90374e-05
4.55275e-05
5.14397e-05
4.07787e-05
5.35213e-05
3.56485e-05
5.52067e-05
3.01663e-05
5.64216e-05
2.43719e-05
5.71078e-05
1.83349e-05
1.2047e-05
5.7214e-05
3.0309e-06
8.59059e-05
5.20547e-06
7.40195e-05
7.63346e-06
7.1154e-05
1.02141e-05
7.29892e-05
1.28526e-05
7.2836e-05
1.55036e-05
7.17907e-05
1.81733e-05
7.05302e-05
2.0867e-05
6.90898e-05
2.3584e-05
6.74121e-05
2.63204e-05
6.54673e-05
2.90667e-05
6.3242e-05
3.18087e-05
6.07229e-05
3.45262e-05
5.78953e-05
3.71924e-05
5.47446e-05
3.97728e-05
5.12584e-05
4.22257e-05
4.74281e-05
4.45023e-05
4.32509e-05
4.65488e-05
3.87321e-05
4.83087e-05
3.38885e-05
4.97255e-05
2.87495e-05
5.07451e-05
2.33522e-05
5.13263e-05
1.77537e-05
1.19407e-05
5.14327e-05
2.97439e-06
8.29315e-05
4.9201e-06
7.20738e-05
7.11535e-06
6.89588e-05
9.49324e-06
7.06113e-05
1.19301e-05
7.03991e-05
1.43692e-05
6.93517e-05
1.68162e-05
6.80832e-05
1.92755e-05
6.66306e-05
2.17457e-05
6.49419e-05
2.42215e-05
6.29916e-05
2.66927e-05
6.07709e-05
2.91448e-05
5.82709e-05
3.15586e-05
5.54815e-05
3.39099e-05
5.23934e-05
3.61692e-05
4.89992e-05
3.83013e-05
4.52959e-05
4.0267e-05
4.12852e-05
4.20239e-05
3.69751e-05
4.35292e-05
3.23831e-05
4.47415e-05
2.7537e-05
4.56233e-05
2.24704e-05
4.61469e-05
1.723e-05
1.18001e-05
4.62875e-05
2.92209e-06
8.00095e-05
4.64656e-06
7.03493e-05
6.59054e-06
6.70149e-05
8.75323e-06
6.84486e-05
1.09802e-05
6.81721e-05
1.32022e-05
6.71297e-05
1.54242e-05
6.58612e-05
1.76503e-05
6.44046e-05
1.98791e-05
6.27131e-05
2.21043e-05
6.07665e-05
2.43148e-05
5.85604e-05
2.64966e-05
5.60892e-05
2.86317e-05
5.33465e-05
3.06984e-05
5.03267e-05
3.26714e-05
4.70263e-05
3.45215e-05
4.34458e-05
3.62173e-05
3.95894e-05
3.77256e-05
3.54668e-05
3.90135e-05
3.10952e-05
4.00515e-05
2.6499e-05
4.08139e-05
2.1708e-05
4.12827e-05
1.67611e-05
1.16419e-05
4.14408e-05
2.86476e-06
7.71447e-05
4.37775e-06
6.88363e-05
6.05376e-06
6.53388e-05
7.9859e-06
6.65165e-05
9.99042e-06
6.61676e-05
1.19851e-05
6.5135e-05
1.39744e-05
6.38719e-05
1.59622e-05
6.24168e-05
1.79476e-05
6.07277e-05
1.99229e-05
5.87912e-05
2.18766e-05
5.66068e-05
2.37949e-05
5.41709e-05
2.5661e-05
5.14804e-05
2.74555e-05
4.85324e-05
2.91564e-05
4.53255e-05
3.07395e-05
4.18627e-05
3.21791e-05
3.81498e-05
3.34484e-05
3.41975e-05
3.45218e-05
3.00217e-05
3.53773e-05
2.56435e-05
3.59966e-05
2.10885e-05
3.63683e-05
1.63893e-05
1.15313e-05
3.64789e-05
2.79081e-06
7.43538e-05
4.10684e-06
6.75202e-05
5.50097e-06
6.39447e-05
7.18498e-06
6.48325e-05
8.9496e-06
6.4403e-05
1.07018e-05
6.33827e-05
1.24459e-05
6.21278e-05
1.41852e-05
6.06775e-05
1.59184e-05
5.89944e-05
1.76362e-05
5.70734e-05
1.93266e-05
5.49163e-05
2.09765e-05
5.25211e-05
2.257e-05
4.9887e-05
2.40897e-05
4.70128e-05
2.55161e-05
4.38991e-05
2.68289e-05
4.05499e-05
2.80064e-05
3.69723e-05
2.90263e-05
3.31776e-05
2.98682e-05
2.91798e-05
3.05149e-05
2.49967e-05
3.09528e-05
2.06506e-05
3.11752e-05
1.61668e-05
1.15354e-05
3.11709e-05
2.68219e-06
7.16716e-05
3.82668e-06
6.63757e-05
4.93182e-06
6.28396e-05
6.35126e-06
6.34131e-05
7.8566e-06
6.28977e-05
9.35086e-06
6.18884e-05
1.08371e-05
6.06414e-05
1.23167e-05
5.91979e-05
1.37871e-05
5.7524e-05
1.52374e-05
5.56232e-05
1.66559e-05
5.34979e-05
1.80297e-05
5.11473e-05
1.93444e-05
4.85724e-05
2.0584e-05
4.57732e-05
2.17318e-05
4.27513e-05
2.27703e-05
3.95114e-05
2.36813e-05
3.60614e-05
2.44463e-05
3.24127e-05
2.50494e-05
2.85768e-05
2.5477e-05
2.45691e-05
2.57203e-05
2.04072e-05
2.57776e-05
1.61094e-05
1.16726e-05
2.56403e-05
2.52859e-06
6.9143e-05
3.51972e-06
6.53847e-05
4.34458e-06
6.20148e-05
5.49242e-06
6.22653e-05
6.72469e-06
6.16653e-05
7.9522e-06
6.06608e-05
9.17376e-06
5.94198e-05
1.03886e-05
5.7983e-05
1.15918e-05
5.63209e-05
1.27713e-05
5.44437e-05
1.39166e-05
5.23526e-05
1.50155e-05
5.00484e-05
1.60551e-05
4.75328e-05
1.70215e-05
4.48068e-05
1.79005e-05
4.18723e-05
1.86777e-05
3.87342e-05
1.93381e-05
3.54011e-05
1.98673e-05
3.18836e-05
2.02534e-05
2.81907e-05
2.04872e-05
2.43353e-05
2.05647e-05
2.03296e-05
2.04884e-05
1.61857e-05
1.19069e-05
2.0254e-05
2.32345e-06
6.68196e-05
3.17002e-06