/*--------------------------------*- C++ -*----------------------------------*\
  =========                 |
  \\      /  F ield         | OpenFOAM: The Open Source CFD Toolbox
   \\    /   O peration     | Website:  https://openfoam.org
    \\  /    A nd           | Version:  13
     \\/     M anipulation  |
\*---------------------------------------------------------------------------*/
FoamFile
{
    format      ascii;
    class       volScalarField;
    location    "0.75";
    object      rho;
}
// * * * * * * * * * * * * * * * * * * * * * * * * * * * * * * * * * * * * * //

dimensions      [1 -3 0 0 0 0 0];

internalField   nonuniform List<scalar> 
2268
(
1000
1000
1000
1000
1000
1000
1000
1000
1000
1000
1000
1000
1000
1000
1000
999.72
974.475
955.399
977.148
997.419
997.424
997.379
997.335
1000
1000
1000
1000
1000
1000
1000
1000
1000
1000
1000
1000
1000
1000
1000
999.987
987.932
955.465
949.3
967.306
970.356
971.831
997.958
1000
1000
1000
1000
1000
1000
1000
1000
1000
1000
1000
1000
1000
1000
1000
999.997
999.955
986.413
949.149
945.242
945.242
951.383
999.734
1000
1000
1000
1000
1000
1000
1000
1000
1000
1000
1000
1000
1000
1000
1000
1000
1000
999.963
994.295
977.711
955.957
1000
999.883
1000
1000
1000
1000
1000
1000
1000
1000
1000
1000
1000
1000
1000
1000
1000
1000
1000
999.999
1000
1000
1000
1000
1000
1000
1000
1000
1000
1000
1000
999.998
999.986
999.955
999.997
1000
1000
1000
1000
1000
1000
1000
1000
1000
1000
1000
1000
999.989
1000
1000
1000
1000
1000
1000
999.903
999.316
999.776
1000
1000
1000
1000
1000
1000
1000
1000
1000
1000
1000
1000
1000
999.955
1000
1000
988.036
971.127
948.951
932.292
945.982
993.293
999.998
999.998
999.998
999.998
999.999
1000
1000
1000
1000
1000
1000
1000
1000
1000
999.952
972.081
999.742
999.837
999.82
967.785
908.882
908.294
706.29
699.224
895.07
895.086
895.086
895.079
895.005
892.484
886.863
888.378
888.376
826.718
972.2
999.837
999.852
999.951
999.954
999.954
999.954
789.051
701.711
894.9
895.086
751.254
684.928
639.423
516.55
459.68
535.55
868.176
894.25
972.31
999.773
999.377
997.718
999.875
999.954
975.842
912.612
910.524
769.412
193.733
77.3116
84.6572
106.334
141.309
192.276
173.57
264.263
893.583
979.024
999.495
821.408
928.296
998.818
999.941
929.711
939.416
823.467
164.294
15.2511
21.9956
30.8247
115.424
669.158
776.021
372.441
102.346
380.788
994.582
938.318
670.185
836.453
998.116
997.093
965.314
949.584
505.122
15.897
9.6583
15.0179
26.6323
409.896
780.77
780.77
780.771
149.569
42.2727
994.499
674.486
670.141
892.008
996.406
996.841
996.549
771.564
15.2562
7.27861
7.09312
9.55052
59.7923
738.047
780.694
780.772
780.77
173.019
41.6103
805.033
663.569
742.695
970.671
995.092
996.494
979.951
506.981
7.53747
4.14304
5.49653
7.00314
207.158
779.642
780.251
780.608
780.531
185.408
41.8146
671.734
819.091
862.747
732.92
917.712
995.193
899.352
216.689
4.01804
2.81131
4.08258
12.0411
574.32
779.218
779.646
779.615
779.157
228.278
177.105
413.867
394.319
380.916
392.797
460.655
606.217
778.46
910.849
979.831
1000
1000
1000
1000
999.997
999.999
1000
999.999
999.999
999.999
999.999
999.997
999.992
999.95
55.6557
41.8567
59.5068
81.5149
110.683
169.01
264.632
377.713
499.918
636.908
771.28
858.249
898.319
927.303
964.555
982.038
986.271
985.314
991.829
999.537
999.839
993.077
992.551
1.55143
1.23643
1.68456
1.75656
1.6143
1.78442
3.51609
8.22905
19.6428
61.8953
144.171
237.351
304.878
363.772
456.803
528.294
568.252
630.393
723.975
730.877
605.856
441.612
437.303
1.0509
1.00996
1.01277
1.00575
1.00206
1.00517
1.00615
1.00174
1.00727
1.06241
1.42274
31.2139
86.8382
129.584
169.546
250.507
355.254
399.53
315.488
107.293
12.7024
2.0024
1.99912
1.00669
1.00154
1.00043
1.0002
1.00009
1.00006
1.00018
1.00064
1.00057
1.00688
1.06442
5.62224
14.3055
13.922
7.83173
8.59529
14.1752
81.7921
253.386
296.604
80.6777
1.99945
1.99817
1.00182
1.00067
1.00014
1.00002
1.00001
1
1
1.00002
1.00014
1.00132
1.13356
1.23508
1.12709
1.2953
2.02158
5.28598
142.979
390.518
390.453
390.557
200.902
2.00686
1.99947
1.00051
1.00136
1.00012
1.00001
1
1
1
1.00001
1.00006
1.00043
1.01075
1.0557
1.08409
1.13145
1.54955
4.18333
151.836
389.675
390.64
389.675
164.715
2.05308
2.00969
1.00005
1.00084
1.00024
1.00002
1
1
1
1.00004
1.00035
1.00043
1.00013
1.00109
1.02463
1.07973
1.17869
1.50265
4.77024
187.962
389.675
386.798
290.09
2.44331
2.10454
1.00001
1.00003
1.00014
1.00004
1
1
1
1.00005
1.00042
1.00034
1.00005
1.00034
1.00166
1.00471
1.01346
1.05556
1.36694
8.66573
244.314
392.595
400.346
315.855
49.5845
1
1
1
1.00001
1
1
1
1.00004
1.00033
1.00012
1.00004
1.00012
1.00081
1.00025
1.00188
1.01368
1.0382
1.16551
1.85276
217.264
409.768
411.44
413.345
1
1
1
1
1
1
1
1.00001
1.00002
1
1.00004
1.00033
1.00039
1.00003
1.00024
1.00263
1.03127
1.03878
1.16663
1.35079
27.8943
303.2
412.845
1
1
1
1
1
1
1
1
1
1
1.00004
1.00038
1.0001
1
1.00003
1.00032
1.01301
1.04316
1.0481
1.04474
1.0143
1.00637
1.00886
1
1
1
1
1
1
1
1
1
1
1.00003
1.00028
1.00001
1
1
1.00009
1.00115
1.02949
1.30906
1.2777
1.00596
1.00596
1.00596
1
1
1
1
1
1
1
1
1
1
1.00002
1.00001
1
1
1
1
1.00001
1.00288
1.37827
2.38779
1.37282
1.00596
1.00598
1
1
1
1
1
1
1
1
1
1
1
1
1
1
1
1
1
1.00001
1.22038
2.44357
2.3805
1.00598
1.00596
1
1
1
1
1
1
1
1
1
1
1
1
1
1
1
1
1
1
1.00325
2.02149
2.63091
2.19222
1.0062
1
1
1
1
1
1
1
1
1
1
1
1
1
1
1
1
1
1
1.00004
1.02501
2.43858
2.65233
2.63944
1
1
1
1
1
1
1
1
1
1
1
1
1
1
1
1
1
1
1
1.00013
1.07624
1.74297
2.51848
1
1
1
1
1
1
1
1
1
1
1
1
1
1
1
1
1
1
1
1.00008
1.00053
1.00268
1.1079
1
1
1
1
1
1
1
1
1
1
1
1
1
1
1
1
1
1
1
1
1.00007
1.00011
1.00013
1
1
1
1
1
1
1
1
1
1
1
1
1
1
1
1
1
1
1
1
1
1
1.00001
1
1
1
1
1
1
1
1
1
1
1
1
1
1
1
1
1
1
1
1
1
1
1
1
1
1
1
1
1
1
1
1
1
1
1
1
1
1
1
1
1
1
1
1
1
1
1
1
1
1
1
1
1
1
1
1
1
1
1
1
1
1
1
1
1
1
1
1
1
1
1
1
1
1
1
1
1
1
1
1
1
1
1
1
1
1
1
1
1
1
1
1
1
1
1
1
1
1
1
1
1
1
1
1
1
1
1
1
1
1
1
1
1
1
1
1
1
1
1
1
1
1
1
1
1
1
1
1
1
1
1
1
1
1
1
1
1
1
1
1
1
1
1
1
1
1
1
1
1
1
1
1
1
1
1
1
1
1
1
1
1
1
1
1
1
1
1
1
1
1
1
1
1
1
1
1
1
1
1
1
1
1
1
1
1
1
1
1
1
1
1
1
1
1
1
1
1
1
1
1
1
1
1
1
1
1
1
1
1
1
1
1
1
1
1
1
1
1
1
1
1
1
1
1
1
1
1
1
1
1
1
1
1
1
1
1
1
1
1
1
1
1
1
1
1
1
1
1
1
1
1
1
1
1
1
1
1
1
1
1
1
1
1
1
1
1
1
1
1
1
1
1
1
1
1
1
1
1
1
1
1
1
1
1
1
1
1
1
1
1
1
1
1
1
1
1
1
1
1
1
1
1
1
1
1
1
1
1
1
1
1
1
1
1
1
1
1
1
1
1
1
1
1
1
1
1
1
1
1
1
1
1
1
1
1
1
1
1
1
1
1
1
1
1
1
1
1
1
1
1
1
1
1
1
1
1
1
1
1
1
1
1
1
1
1
1
1
1
1
1
1
1
1
1
1
1
1
1
1
1
1
1
1
1
1
1
1
1
1
1
1
1
1
1
1
1
1
1
1
1
1
1
1
1
1
1
1
1
1
1
1
1
1
1
1
1
1
1
1
1
1
1
1
1
1
1
1
1
1
1
1
1
1
1
1
1
1
1
1
1
1
1
1
1
1
1
1
1
1
1
1
1
1
1
1
1
1
1
1
1
1
1
1
1
1
1
1
1
1
1
1
1
1
1
1
1
1
1
1
1
1
1
1
999.794
999.683
999.458
999.07
994.008
979.107
927.877
828.56
455.108
371.709
218.02
38.2485
1.99817
1.99805
1.99804
1.9981
1.99805
1.99805
1.99805
1.99805
1.99817
1.99805
1.99808
1.99842
2.00043
1.99917
2.03316
2.0202
2.045
2.71825
5.62325
6.3819
32.4565
17.4702
43.5453
99.6862
355.527
144.412
368.581
436.818
436.222
437.177
437.177
437.177
118.637
365.053
430.014
257.589
1.0061
1.0069
1.00868
1.01181
1.00634
1.00819
1.01207
1.05031
1.0062
1.01289
1.02242
1.0181
1.00649
1.01334
1.12645
1.20751
2.04111
1.02553
1.26323
2.08458
2.48934
2.46007
2.43074
2.38089
1.14849
1.12166
1.07477
1.0115
1.00099
1.00223
1.00008
1.00004
1.00004
1.00009
1.00012
1.00013
1
1
1
1
1
1
1
1
1
1
1
1
1
1
1
1
1
1
1
1
1
1
1
1
1
1
1
1
1
1
1
1
1
1
1
1
1
1
1
1
1
1
1
1
1
1
1
1
1
1
1
1
1
1
1
1
1
1
1
1
1
1
1
1
1
1
1
1
1
1
1
1
1
1
1
1
1
1
1
1
1
1
1
1
975.645
974.403
853.848
366.416
643.36
990.46
736.236
5.32273
2.06305
2.39184
2.78067
28.1521
772.155
778.17
778.277
775.29
740.392
249.677
546.494
714.21
446.873
43.3273
53.0319
200.964
985.199
644.022
2.02964
1.6578
2.03905
3.6987
294.363
774.135
776.737
764.119
465.618
315.654
247.175
551.818
2.04774
2.34295
41.7205
505.83
728.753
957.171
545.243
1.65739
1.5528
1.67887
31.0585
645.247
772.766
773.527
368.655
82.8392
82.5779
225.69
551.818
1.99813
2.04758
2.54965
325.304
899.986
937.94
382.16
1.5528
1.53125
1.57959
61.4022
719.697
763.53
736.428
127.473
82.7214
83.9595
85.596
510.714
1.9988
2.0068
2.17461
65.488
694.892
928.873
382.784
1.53125
1.52726
1.53125
46.1966
493.489
236.063
468.82
291.54
84.0985
85.596
129.801
499.412
1.99973
2.00372
2.03432
4.16132
385.173
892.821
548.212
1.52626
1.52835
1.52644
6.21799
132.855
12.6999
103.568
536.638
550.312
542.539
666.1
819.781
2.05439
2.08508
2.64475
3.10308
74.0904
553.33
623.633
143.211
1.53385
1.53198
1.68835
50.5797
10.4158
15.0563
486.645
802.37
890.527
899.252
898.964
13.31
30.5444
23.6136
4.80075
5.69767
71.7288
500.712
526.053
34.5419
1.6882
1.86192
54.0035
11.0125
1.05127
1.05442
86.0507
322.592
805.198
899.253
240.306
388.297
325.506
61.224
7.54027
8.76624
98.9733
678.151
518.92
23.8283
1.94897
59.3931
15.8073
1.04045
1.01668
1.05444
1.43606
188.007
898.681
436.46
436.46
434.704
431.362
190.455
175.91
526.19
678.839
678.177
515.194
203.481
131.696
4.67567
1.02995
1.00968
1.01178
1.11468
31.007
745.547
430.067
350.074
290.195
311.282
513.469
675.606
678.833
678.567
678.753
678.177
630.832
230.727
1.17385
1.01248
1.00809
1.00087
1.00816
15.5739
94.4512
42.8029
1.05123
1.06364
1.05386
40.7472
240.079
437.134
517.249
483.809
327.212
267.487
140.241
5.02342
1.01244
1.00478
1.00036
1.00034
1.00867
1.23509
1.01688
1.04749
1.05592
1.03162
1.00205
1.0114
11.8565
29.3
25.2647
2.83251
1.70189
5.92554
4.19966
1.03999
1.00705
1.00005
1.00004
1.37975
43.236
1.19033
1.21679
1.21055
1.02205
1.00023
1.00046
1.00192
1.15641
1.02357
1.02353
1.03522
1.01709
1.1172
1.01412
1.0046
1.00003
1.00003
1.05473
56.6863
1.00966
1.00479
1.00025
1.00023
1.0002
1.00023
1.00096
1.00708
1.00284
1.00089
1.00071
1.00032
1.00242
1.00065
1.00003
1.00003
1.00003
1.00003
54.1112
1.30079
1.08161
1.0021
1.0002
1.00017
1.00049
1.00084
1.00119
1.00177
1.001
1.00069
1.00004
1.00003
1.00003
1.00003
1.00003
1.00003
1.16325
2.2603
2.31273
1.87924
1.10013
1.00072
1.00012
1
1
1.00057
1.00161
1.0018
1.0018
1.00038
1.00003
1.00003
1.00003
1.00003
1.00003
1.13054
1.15992
2.25281
1.85401
1.19104
1.01567
1.00082
1.00003
1
1
1
1.00084
1.00058
1.00012
1.00004
1.00004
1.00003
1.00003
1.00003
1.31177
1.27454
1.00004
1.00004
1.00586
1.02006
1.00219
1.00006
1.00002
1
1
1
1
1
1.00043
1.00104
1.00019
1.00003
1.00003
1.33529
8.37305
1.00003
1.00003
1.00002
1.00001
1
1.00005
1.00003
1
1
1
1
1
1.00146
1.00161
1.00089
1.00004
1.00005
1.00184
56.4557
1.00003
1.00006
1.00007
1.00005
1
1
1
1
1
1
1
1
1.00068
1.00162
1.00159
1.00018
1.03782
1.01241
61.741
1
1
1
1
1
1
1
1
1
1
1
1
1
1.00142
1.0016
1.00018
1.50514
1.01504
61.8109
1
1
1
1
1
1
1
1
1
1
1
1
1
1.00046
1.00161
1.00026
1.54116
1.01597
61.8373
1
1
1
1
1
1
1
1
1
1
1
1
1
1.00024
1.00116
1.00019
1.53959
1.01905
61.8864
1
1
1
1
1
1
1
1
1
1
1
1
1
1.00036
1.00028
1.0002
1.07673
1.00037
61.8804
1
1
1
1
1
1
1
1
1
1
1
1
1.00039
1.00068
1.00035
1.00034
1.00034
1.00036
61.8238
1
1
1
1
1
1
1
1
1.00001
1.00011
1.00011
1
1.00061
1.00076
1.00054
1.00034
1.00079
1.00037
61.7222
1
1
1
1
1
1
1
1
1.00062
1.0011
1.00027
1
1.00022
1.00076
1.00069
1.01187
1.03941
1.0004
61.6236
1
1
1
1
1
1
1
1.00013
1.00114
1.00113
1.00021
1.00001
1.00015
1.00037
1.00616
1.10586
1.05626
1.00061
61.5301
1
1
1
1
1
1
1
1.00074
1.00114
1.00078
1.00003
1.00001
1.00005
1.00026
1.00394
1.10537
1.00961
1.00096
61.4297
1
1
1
1
1
1
1
1.00062
1.00114
1.00034
1.00006
1.00011
1.00088
1.00158
1.00173
1.01007
1.00218
1.00154
61.3178
1
1
1
1
1
1
1
1
1.00107
1.00036
1.00288
1.00299
1.01631
1.02186
1.01138
1.00087
1.0028
1.01838
60.567
1
1
1
1
1
1
1
1
1.00007
1.00019
1.01126
1.02604
1.03381
1.03381
1.02961
1.0008
1.008
2.14283
17.1681
1
1
1
1
1
1
1
1
1
1
1.00948
1.03311
1.03381
1.02317
1.00162
1
1.03065
2.50183
1.02012
1
1
1
1
1
1
1
1
1
1
1.00005
1.00459
1.00537
1
1
1
1
2.1594
1.01771
1
1
1
1
1
1
1
1
1
1
1
1
1
1
1
1
1
1
1.00742
1
1
1
1
1
1
1
1
1
1
1
1
1
1
1
1
1
1
1
1
1
1
1
1
1
1
1
1
1
1
1
1
1
1
1
1
1
1
1
1
1
1
1
1
1
1
1
1
1
1
1
1
1
1
1
1
1
1
1
1
1
1
1
1
1
1
1
1
1
1
1
1
1
1
1
1
1
1
1
1
1
1
1
1
1
1
1
1
1
1
1
1
1
1
1
1
1
1
1
1
1
1
1
1
1
1
1
1
1
1
1
1
1
1
)
;

boundaryField
{
    leftWall
    {
        type            calculated;
        value           nonuniform List<scalar> 
50
(
1000
1000
1000
1000
1000
1000
1000
1000
413.867
55.6557
1.55143
1.0509
1.00669
1.00182
1.00051
1.00005
1.00001
1
1
1
1
1
1
1
1
1
1
1
1
1
1
1
1
1
1
1
1
1
1
1
1
1
1
1
1
1
1
1
1
1
)
;
    }
    rightWall
    {
        type            calculated;
        value           nonuniform List<scalar> 
50
(
826.718
894.25
893.583
380.788
42.2727
41.6103
41.8146
177.105
546.494
551.818
551.818
510.714
499.412
819.781
898.964
899.253
898.681
745.547
94.4512
1.23509
43.236
56.6863
54.1112
2.2603
1.15992
1.27454
8.37305
56.4557
61.741
61.8109
61.8373
61.8864
61.8804
61.8238
61.7222
61.6236
61.5301
61.4297
61.3178
60.567
17.1681
1.02012
1.01771
1.00742
1
1
1
1
1
1
)
;
    }
    lowerWall
    {
        type            calculated;
        value           nonuniform List<scalar> 
62
(
1000
1000
1000
1000
1000
1000
1000
1000
1000
1000
1000
1000
1000
1000
1000
999.72
974.475
955.399
977.148
997.419
997.424
997.379
997.335
997.335
997.958
999.734
999.883
1000
999.989
999.955
999.952
999.794
999.683
999.458
999.07
972.081
972.2
972.31
979.024
994.582
994.499
805.033
671.734
972.081
999.742
999.837
999.82
967.785
908.882
908.294
706.29
699.224
895.07
895.086
895.086
895.079
895.005
892.484
886.863
888.378
888.376
826.718
)
;
    }
    atmosphere
    {
        type            calculated;
        value           uniform 1;
    }
    defaultFaces
    {
        type            empty;
    }
}


// ************************************************************************* //
