/*--------------------------------*- C++ -*----------------------------------*\
  =========                 |
  \\      /  F ield         | OpenFOAM: The Open Source CFD Toolbox
   \\    /   O peration     | Website:  https://openfoam.org
    \\  /    A nd           | Version:  13
     \\/     M anipulation  |
\*---------------------------------------------------------------------------*/
FoamFile
{
    format      ascii;
    class       volScalarField;
    location    "0.45";
    object      alpha.water;
}
// * * * * * * * * * * * * * * * * * * * * * * * * * * * * * * * * * * * * * //

dimensions      [];

internalField   nonuniform List<scalar> 
2268
(
1
1
1
1
1
1
1
1
1
1
1
1
1
1
1
1
1
1
1
0.920769
0.870416
0.919157
0.99858
1
1
1
1
1
1
1
1
1
1
1
1
1
1
1
1
1
1
1
0.988323
0.870416
0.956086
0.998593
1
1
1
1
1
1
1
1
1
1
1
1
1
1
1
1
1
1
1
0.999993
0.910958
0.974855
0.998609
1
1
1
1
1
1
1
1
1
1
1
1
1
1
1
1
1
1
1
1
0.997735
0.998475
0.99874
1
1
1
1
1
1
1
1
1
1
1
1
1
1
1
1
1
1
1
0.999999
0.999997
0.999972
0.999226
1
1
1
0.999999
0.999999
0.999999
1
1
1
1
1
1
1
1
1
1
1
1
1
1
1
0.999993
0.999205
1
1
1
0.99999
0.999988
0.999992
0.999995
0.999998
0.999999
1
1
1
1
1
1
1
1
1
1
1
1
1
0.999204
1
1
0.999976
0.999887
0.999875
0.999915
0.999955
0.999971
0.999982
0.99999
0.999994
0.999997
0.999998
0.999999
1
1
1
1
1
1
1
1
0.99923
8.94218e-05
7.69379e-05
5.24172e-05
1.42853e-05
7.76447e-07
7.01e-08
4.79225e-09
2.60871e-10
6.9727e-12
7.66685e-14
6.55792e-14
8.8667e-14
1.28685e-12
1.64734e-11
1.99406e-10
2.35709e-09
2.47564e-08
8.15166e-08
3.84959e-07
0.000100676
0.000147352
0.000199386
7.69425e-05
6.80583e-06
8.30213e-07
7.05129e-08
3.8091e-09
1.07641e-10
1.38498e-12
6.98756e-14
3.75745e-13
1.2428e-11
2.17413e-10
2.10473e-09
2.98716e-08
3.23972e-07
4.80095e-07
1.26613e-06
0.000287181
0.000644438
0.00183555
0.000628005
3.09747e-05
3.98418e-06
3.13216e-07
1.6088e-08
5.02465e-10
6.94717e-12
3.09801e-13
2.36768e-12
8.80638e-11
1.71704e-09
2.09213e-08
1.70659e-07
2.25863e-06
4.85533e-06
1.0911e-05
0.00245665
0.0112304
0.00885651
0.00136245
2.70029e-05
2.90613e-06
2.13693e-07
1.07799e-08
4.6155e-10
1.07498e-11
1.81571e-12
1.17055e-11
4.53598e-10
9.22507e-09
1.16013e-07
1.00873e-06
1.10451e-05
3.5658e-05
7.44434e-05
0.00539831
0.0195872
0.00438628
0.000450237
6.30376e-05
6.23249e-06
4.07604e-07
1.85349e-08
6.00609e-10
2.92793e-11
8.31237e-12
4.53039e-11
1.7722e-09
3.81555e-08
5.00664e-07
4.39413e-06
3.7238e-05
0.000161507
0.000381789
0.00623953
0.00149642
0.000118749
0.000165719
7.14611e-05
5.40192e-06
3.03684e-07
1.35154e-08
3.83749e-10
6.18026e-11
2.92452e-11
1.29411e-10
5.74104e-09
1.33976e-07
1.79314e-06
1.56421e-05
0.000107264
0.000554835
0.00144504
0.191934
0.00014731
5.33483e-05
5.47773e-05
2.26275e-05
2.38661e-06
9.4655e-08
3.93208e-09
1.6503e-10
4.62797e-11
7.0233e-11
1.64248e-09
2.72169e-08
3.86261e-07
6.09728e-06
5.53832e-05
0.000446004
0.00288079
0.00452484
0.590703
0.000893118
1.01048e-05
4.99411e-06
2.16223e-06
5.89581e-07
5.74045e-09
3.41453e-10
4.6284e-11
4.62797e-11
4.62816e-11
1.77948e-10
5.37073e-08
1.56441e-06
2.26795e-05
0.000133019
0.00172684
0.0115438
0.0107765
1
0.99999
0.999523
0.998809
0.998801
0.999139
0.999488
0.999693
0.999766
0.999823
0.999869
0.999904
0.999936
0.999961
0.999986
1
1
1
1
1
1
1
0.999456
1
0.984636
0.865553
0.773866
0.800543
0.84093
0.860818
0.882183
0.909911
0.937584
0.960965
0.979536
0.992287
0.997358
0.998669
0.999999
1
1
1
1
1
1
0.999937
0.769315
0.414348
0.132256
0.0781328
0.120703
0.14671
0.148479
0.163179
0.196347
0.241918
0.296957
0.366332
0.459965
0.586958
0.728848
0.894599
0.999993
0.999999
1
1
1
1
1
0.0129395
1.22943e-17
1.52756e-16
9.73798e-16
1.654e-15
5.13489e-15
5.47064e-14
1.70537e-12
4.59637e-11
9.8338e-10
6.63605e-09
1.45744e-08
4.17605e-08
7.52984e-07
0.0291525
0.0854867
0.194663
0.424108
0.803187
0.999995
0.999999
0.999999
0.999997
2.86763e-18
3.32804e-18
1.2326e-17
9.35801e-16
3.41928e-14
1.72099e-13
2.36117e-13
3.65803e-13
2.43114e-12
6.0516e-11
1.2569e-09
6.89537e-09
1.45776e-08
4.21529e-08
7.55926e-07
1.00526e-05
0.000196584
0.0125679
0.0658694
0.187086
0.435373
0.86592
0.999984
1.42604e-18
5.5473e-18
1.90565e-15
5.33099e-14
7.20626e-13
3.56163e-12
8.04149e-12
1.29141e-11
4.45874e-10
6.55231e-08
3.09898e-07
3.38269e-07
7.46504e-08
7.71737e-08
7.58862e-06
3.10207e-05
4.73231e-05
4.75279e-05
6.12943e-05
0.000116245
0.0103703
0.0911894
0.263561
5.45105e-19
2.99943e-18
2.5089e-15
1.38061e-13
2.12587e-12
9.14793e-12
1.5822e-11
1.65713e-11
1.81717e-10
1.9966e-07
5.34774e-07
5.35031e-07
3.53524e-07
1.19153e-07
6.00288e-07
0.000149706
0.000246377
0.000280801
0.0003898
0.000543107
0.000376153
0.000196809
0.000147368
1.24917e-19
1.28607e-18
1.42622e-15
1.45559e-13
2.50178e-12
1.06989e-11
1.7533e-11
1.46205e-11
4.3716e-11
1.27535e-07
5.34963e-07
4.99435e-07
1.14306e-07
1.21867e-07
1.25222e-07
3.05094e-05
2.32596e-06
0.000104539
3.85265e-05
4.46148e-07
8.74301e-05
0.000257497
0.000118396
1.90898e-20
4.87469e-19
4.12073e-16
8.68668e-14
1.98401e-12
9.87185e-12
1.62507e-11
1.37397e-11
3.52699e-11
6.68001e-09
4.80958e-08
5.16882e-08
4.04955e-09
4.12573e-07
1.37016e-06
2.94042e-10
5.53109e-11
8.49594e-11
8.97446e-11
1.93481e-07
8.1153e-06
8.51035e-05
8.47909e-05
3.90597e-21
3.64648e-20
1.08877e-16
3.58573e-14
8.75893e-13
5.17168e-12
1.16258e-11
1.37577e-11
4.58411e-11
4.58649e-11
5.36375e-11
7.18789e-11
2.26977e-09
6.4366e-07
1.81491e-06
6.21169e-08
1.45619e-11
7.03289e-11
1.35923e-09
4.20622e-06
0.000104721
0.000290324
0.000256758
2.02352e-21
5.99759e-21
2.66441e-17
1.30447e-14
3.00078e-13
1.60986e-12
4.43076e-12
6.76539e-12
4.28087e-11
6.19161e-10
9.98604e-10
1.77904e-09
9.8578e-09
5.92465e-08
7.499e-08
8.64834e-10
1.29276e-11
3.95666e-12
1.35714e-10
3.15053e-09
4.13898e-05
0.000242595
0.000451347
1.83409e-21
2.05737e-21
4.48695e-18
3.45381e-15
8.28347e-14
4.02031e-13
1.29904e-12
3.71716e-12
1.07289e-11
3.93401e-10
1.37973e-09
3.12394e-09
2.50065e-09
1.57943e-11
1.35238e-11
1.30349e-11
1.30347e-11
1.7832e-12
1.93562e-11
1.7703e-09
5.97525e-11
3.39378e-10
1.06236e-05
1.6112e-21
9.44751e-22
7.55541e-19
6.87058e-16
1.7546e-14
8.66354e-14
3.59266e-13
1.68472e-12
2.63102e-12
4.55358e-11
6.28813e-10
2.78275e-09
2.66227e-09
2.9702e-10
9.9311e-11
2.70021e-11
8.21244e-12
1.75777e-12
7.00754e-13
7.58265e-13
8.03494e-13
9.7693e-13
1.22412e-12
2.84099e-22
1.93409e-22
1.67306e-19
1.1446e-16
2.93977e-15
1.41773e-14
7.51522e-14
6.13319e-13
1.79558e-12
6.59267e-12
1.10684e-10
6.53654e-10
9.22365e-10
4.72668e-10
1.16675e-10
1.38562e-11
3.25337e-12
1.50368e-12
6.95834e-13
7.4926e-13
7.55782e-13
8.44628e-13
9.93881e-13
2.54282e-23
2.42565e-23
4.69882e-20
1.54696e-17
3.92218e-16
1.86869e-15
1.43544e-14
1.61997e-13
8.71152e-13
4.97108e-12
1.3622e-11
2.0864e-11
8.96247e-13
4.67013e-11
2.40335e-11
2.07849e-12
4.24283e-13
1.68575e-13
1.65348e-13
8.15882e-13
2.23127e-12
4.10534e-12
5.17119e-12
2.14954e-24
2.2332e-24
1.3436e-20
1.66364e-18
4.07435e-17
2.00731e-16
2.54064e-15
3.85094e-14
3.92905e-13
1.84793e-12
1.28486e-12
1.1609e-13
1.1591e-13
6.62316e-14
3.04981e-13
1.25094e-13
6.36491e-14
2.4497e-14
1.40898e-14
3.53203e-14
2.05136e-13
1.18846e-12
4.66367e-12
1.6183e-25
2.69752e-25
2.94937e-21
1.44246e-19
3.18417e-18
1.68695e-17
4.23666e-16
7.98878e-15
6.23061e-14
1.53786e-13
1.92163e-13
1.92544e-13
1.50663e-13
6.62558e-14
1.56564e-14
1.05819e-14
7.15688e-15
3.05321e-15
2.47821e-15
1.16307e-14
8.38733e-14
4.96578e-13
2.02199e-12
1.00828e-26
1.20552e-25
4.2963e-22
1.0423e-20
1.78659e-19
1.0983e-18
5.603e-17
1.01785e-15
7.20323e-15
2.46161e-14
7.99986e-14
1.30694e-13
9.00868e-14
3.31663e-14
3.87415e-15
9.26937e-16
4.71121e-16
3.31107e-16
6.25481e-16
4.09801e-15
3.39182e-14
2.2939e-13
1.03712e-12
4.8293e-28
2.2671e-26
4.01172e-23
6.48926e-22
6.65156e-21
6.15038e-20
5.92686e-18
9.13344e-17
5.71083e-16
4.39998e-15
1.45301e-14
2.3563e-14
8.46698e-15
2.98615e-15
6.60939e-16
1.44711e-16
5.50886e-17
4.72602e-17
1.41334e-16
1.36145e-15
1.29097e-14
1.00505e-13
5.13728e-13
1.55297e-29
1.28066e-27
2.25172e-24
3.2434e-23
1.46776e-22
3.83075e-21
5.01041e-19
8.40199e-18
6.56439e-17
5.23568e-16
1.18834e-15
1.06286e-15
6.95197e-16
3.1131e-16
1.01708e-16
2.37951e-17
6.26975e-18
6.10068e-18
3.41214e-17
4.27644e-16
4.70508e-15
4.49483e-14
2.69471e-13
3.82088e-31
2.34614e-29
5.92035e-26
9.06755e-25
1.71073e-24
3.55605e-22
4.10551e-20
8.25253e-19
6.01138e-18
3.29277e-17
5.90048e-17
6.30064e-17
5.50538e-17
3.58642e-17
1.47327e-17
2.92279e-18
5.02971e-19
8.17508e-19
8.78114e-18
1.2628e-16
1.65552e-15
2.21534e-14
1.66361e-13
2.42229e-32
2.6726e-33
1.39067e-29
9.79296e-28
2.30285e-26
2.77933e-23
2.89028e-21
7.27139e-20
5.06138e-19
1.70677e-18
4.12349e-18
5.1071e-18
4.91488e-18
3.5999e-18
1.62217e-18
3.43958e-19
7.77072e-20
1.87891e-19
2.37324e-18
3.58538e-17
5.90349e-16
1.25546e-14
1.19617e-13
1.94994e-34
7.68206e-35
1.44151e-30
1.10419e-28
3.88538e-27
8.18593e-25
1.27025e-22
3.94137e-21
3.20708e-20
1.12619e-19
2.82413e-19
3.52955e-19
3.3361e-19
2.36057e-19
1.02341e-19
2.19496e-20
9.1036e-21
3.9336e-20
6.11772e-19
1.02252e-17
2.2108e-16
7.70346e-15
9.01959e-14
3.89209e-37
1.12147e-36
3.15882e-32
3.98911e-30
1.15139e-28
2.17193e-28
2.19814e-24
1.12509e-22
1.08583e-21
4.51112e-21
1.20687e-20
1.47964e-20
1.36959e-20
9.29647e-21
3.79718e-21
8.95477e-22
9.12662e-22
8.73946e-21
1.636e-19
3.04091e-18
8.45865e-17
4.48868e-15
6.26014e-14
4.90522e-39
1.17977e-37
1.36459e-35
2.96919e-34
7.60656e-33
5.65259e-31
1.72136e-27
7.54911e-25
1.28815e-23
7.90461e-23
2.04116e-22
2.31164e-22
2.09281e-22
1.45872e-22
7.03243e-23
3.13302e-23
1.10127e-22
2.15679e-21
4.6415e-20
9.49402e-19
3.08282e-17
2.18963e-15
3.47916e-14
6.40402e-41
7.7151e-41
1.0136e-38
1.24122e-36
8.23432e-35
5.63537e-32
2.73894e-30
1.57114e-27
2.97898e-26
1.57314e-25
4.30294e-25
6.57556e-25
7.02165e-25
6.62405e-25
5.67422e-25
1.22753e-24
2.13542e-23
5.64909e-22
1.40987e-20
3.07973e-19
1.01586e-17
8.78421e-16
1.57226e-14
5.8699e-44
4.01442e-44
2.77255e-40
2.46486e-38
1.01829e-36
3.19787e-37
8.88884e-33
5.45943e-30
1.34898e-28
8.80529e-28
2.98484e-27
6.4728e-27
1.02524e-26
1.13773e-26
1.60615e-26
1.72863e-25
5.17586e-24
1.57628e-22
4.42701e-21
9.97295e-20
3.01932e-18
3.08396e-16
6.45422e-15
1.21509e-47
5.12221e-48
1.51977e-44
1.42448e-42
4.67591e-41
1.47143e-39
2.02325e-37
6.0367e-35
9.15083e-32
2.6797e-30
1.80753e-29
6.158e-29
1.01245e-28
1.21718e-28
9.2849e-28
3.59442e-26
1.30362e-24
4.39803e-23
1.33088e-21
3.03012e-20
8.10369e-19
9.30439e-17
2.33811e-15
3.18251e-50
1.41454e-49
2.88799e-48
5.84967e-46
1.63816e-43
3.72205e-41
3.80503e-40
1.86604e-39
5.5728e-35
6.40651e-33
5.53574e-32
2.07607e-31
3.82529e-31
2.9802e-30
1.62101e-28
7.72607e-27
3.22032e-25
1.11503e-23
3.53679e-22
8.18915e-21
1.99002e-19
2.32615e-17
7.2544e-16
7.42479e-55
9.73248e-54
1.1709e-50
7.35587e-49
4.07106e-47
1.38256e-45
2.86828e-43
6.7998e-41
6.31502e-39
1.48171e-36
2.64827e-35
1.87201e-34
1.11782e-32
4.45977e-31
2.81627e-29
1.53188e-27
6.90253e-26
2.36745e-24
7.91237e-23
1.92138e-21
4.57501e-20
4.76033e-18
1.91535e-16
9.84332e-57
9.07867e-55
9.21809e-53
3.99744e-50
6.8703e-49
1.40319e-46
7.0589e-45
4.03657e-42
4.37911e-40
5.18603e-39
4.27562e-37
1.65964e-35
1.59422e-33
6.29196e-32
4.74203e-30
2.44783e-28
1.19746e-26
4.09531e-25
1.48446e-23
3.9462e-22
1.00599e-20
8.18769e-19
4.28515e-17
2.25782e-58
2.83964e-56
7.04803e-54
4.22532e-51
5.43065e-50
4.33404e-48
8.32586e-46
2.05234e-43
1.75416e-41
4.82986e-40
4.73698e-38
1.53806e-36
1.55428e-34
9.32122e-33
6.17344e-31
3.06017e-29
1.68303e-27
5.90973e-26
2.42927e-24
7.32114e-23
2.09716e-21
1.28337e-19
8.20985e-18
1.21394e-60
1.28912e-58
3.23049e-55
1.19231e-52
9.45837e-52
5.7933e-50
2.71835e-47
1.03608e-45
8.44543e-44
1.47503e-41
1.74929e-39
9.18182e-38
2.01008e-35
1.13714e-33
6.01936e-32
3.34931e-30
2.0238e-28
7.60514e-27
3.69033e-25
1.25466e-23
4.01945e-22
1.96531e-20
1.36913e-18
4.14911e-62
8.71428e-60
1.08133e-57
8.89584e-57
3.92642e-54
6.08568e-51
1.17644e-49
9.82093e-48
8.87704e-45
4.04192e-43
7.39149e-41
7.81262e-39
1.94507e-36
9.22217e-35
5.06896e-33
3.74954e-31
2.24046e-29
9.34714e-28
5.30117e-26
1.93725e-24
6.74041e-23
2.91671e-21
1.98206e-19
1.67217e-64
3.98448e-62
4.92282e-61
5.54654e-58
1.34707e-55
1.95473e-52
4.56959e-51
5.86074e-49
3.15421e-46
3.04245e-44
7.82695e-42
6.24929e-40
8.3614e-38
4.99198e-36
4.17474e-34
4.02504e-32
2.25757e-30
1.05129e-28
6.57171e-27
2.51488e-25
9.26844e-24
3.91946e-22
2.44124e-20
3.50392e-67
5.1127e-67
2.79552e-63
3.20309e-59
2.72295e-57
3.08406e-57
5.78127e-53
2.49802e-50
1.7832e-49
8.05717e-46
3.45362e-43
2.27827e-41
1.1025e-39
1.84732e-37
2.67352e-35
2.868e-33
1.70741e-31
8.89168e-30
5.95475e-28
2.5601e-26
9.83853e-25
4.48492e-23
2.49286e-21
1.21893e-69
5.793e-69
1.628e-64
8.78806e-63
7.19518e-61
2.38661e-58
3.41762e-56
1.59616e-52
3.18977e-50
6.36163e-49
1.27606e-45
5.68173e-44
3.01714e-41
6.15102e-39
7.33626e-37
8.04507e-35
7.02031e-33
4.52904e-31
3.40169e-29
1.96411e-27
7.73171e-26
4.17026e-24
2.07533e-22
9.13032e-75
8.17136e-71
4.46903e-68
1.56457e-67
2.04768e-64
1.207e-59
1.0142e-57
2.20791e-54
1.70035e-51
1.11069e-50
1.28692e-48
6.33993e-46
1.77395e-42
1.28173e-40
6.04537e-39
3.49772e-37
1.06993e-34
1.33978e-32
1.19288e-30
1.06919e-28
4.31563e-27
2.98387e-25
1.3995e-23
2.65743e-79
5.37368e-76
9.16177e-73
1.45475e-68
5.13515e-66
1.18171e-62
3.7647e-60
3.02716e-60
1.98504e-56
4.67709e-52
2.27698e-50
2.78717e-47
4.12233e-45
6.02098e-43
2.73306e-40
1.52722e-38
4.68276e-37
2.80123e-34
3.07016e-32
3.16622e-30
1.48647e-28
1.42024e-26
7.44189e-25
6.95865e-83
1.91404e-80
4.1571e-76
3.90857e-73
1.55534e-70
6.01458e-70
4.42325e-64
1.74484e-61
8.97882e-61
9.92564e-59
1.75552e-53
3.20831e-51
1.81301e-50
1.00952e-46
2.15301e-43
6.66389e-41
9.18586e-39
5.09427e-37
1.41853e-34
1.24846e-32
1.5034e-30
3.12893e-28
2.54252e-26
5.02185e-94
5.90024e-87
2.35568e-85
2.57363e-81
1.82081e-79
2.90602e-75
1.22394e-73
5.96629e-67
5.25617e-64
6.38483e-64
2.43734e-59
8.39659e-57
2.95404e-54
3.14882e-51
1.35143e-48
5.27685e-47
2.72157e-43
4.36514e-40
9.12789e-38
1.68861e-35
2.8352e-33
5.45655e-31
7.66676e-29
4.24756e-108
4.44969e-102
0
8.08953e-113
1.25082e-92
2.45098e-89
1.20543e-85
2.25704e-82
1.50338e-79
1.28124e-75
-4.88982e-89
9.90693e-73
6.88041e-66
6.30609e-63
4.65399e-61
6.15548e-58
6.31005e-55
6.25507e-52
8.10024e-49
5.42998e-46
2.32804e-43
3.67796e-40
8.20808e-38
0.999582
0.999871
0.999896
0.999965
0.999619
0.999678
0.999903
0.999983
0.99999
0.99998
0.999925
0.999986
0.999987
0.999982
0.999986
0.999986
0.999983
0.999983
0.999985
0.999986
0.44755
0.635853
0.945801
0.999968
0.00261074
0.0201775
0.076361
0.159122
0.00014015
0.00010524
0.000314384
0.000242974
8.38878e-05
8.54846e-05
9.68232e-05
0.000122764
0.000190254
0.000122373
0.000127488
0.000135004
0.000454949
0.000454949
0.000454949
0.000454183
0.00021792
0.000352948
0.000429807
0.000382047
1.73161e-12
4.58237e-12
2.01801e-11
4.04054e-05
1.15199e-12
1.79726e-12
4.66635e-12
2.03353e-11
5.60845e-12
6.46715e-12
1.20039e-11
5.48526e-11
9.26699e-12
1.4442e-11
2.4343e-11
4.57355e-11
4.4793e-12
8.8001e-12
1.98434e-11
4.2946e-11
2.35113e-12
4.2868e-12
8.67717e-12
1.98393e-11
1.22633e-12
2.13e-12
3.43135e-12
6.34895e-12
6.78585e-13
1.20985e-12
1.79821e-12
2.46596e-12
4.44496e-13
8.36634e-13
1.21608e-12
1.34047e-12
3.34786e-13
6.61747e-13
9.87784e-13
9.94809e-13
2.59708e-13
5.3363e-13
8.44309e-13
8.40171e-13
1.8429e-13
3.86071e-13
6.48356e-13
6.62629e-13
1.03506e-13
2.16358e-13
3.88416e-13
4.43159e-13
4.70942e-14
9.79213e-14
1.84494e-13
2.35229e-13
1.95191e-14
4.09582e-14
8.0244e-14
1.04264e-13
7.04523e-15
1.45404e-14
3.77205e-14
2.86379e-13
2.2094e-15
4.63177e-15
1.43994e-14
2.94388e-13
5.91775e-16
1.2174e-15
3.76714e-15
1.61672e-13
1.33832e-16
2.71182e-16
7.41461e-16
3.13305e-15
2.55991e-17
5.24909e-17
1.60185e-16
7.45025e-16
4.26083e-18
9.12788e-18
3.45143e-17
2.05526e-16
6.28253e-19
1.49593e-18
7.71583e-18
5.86719e-17
8.26558e-20
2.41872e-19
1.76993e-18
1.71804e-17
9.67991e-21
3.88584e-20
3.95732e-19
4.61983e-18
9.78294e-22
5.86942e-21
7.77449e-20
1.06311e-18
7.77015e-23
7.51489e-22
1.22591e-20
1.93601e-19
4.03772e-24
7.15714e-23
1.39422e-21
2.55143e-20
1.05597e-25
4.02018e-24
9.35088e-23
2.08623e-21
3.34786e-27
6.45637e-26
2.15356e-24
7.50096e-23
1.85663e-35
1.15736e-33
1.72201e-31
1.97337e-29
0.856186
0.00427108
2.67403e-05
4.68208e-06
1.14717e-07
1.35954e-08
4.51592e-09
4.8321e-09
1.81242e-10
4.52784e-09
2.24616e-09
1.79255e-09
1.61641e-08
3.40943e-07
7.71656e-06
0.000100736
0.00354076
0.0210155
0.0171127
0.999986
0.429673
0.000588914
4.22684e-06
3.20723e-07
1.07002e-07
2.01477e-06
3.00176e-06
4.89526e-07
2.3937e-09
2.294e-09
2.4912e-09
4.23205e-08
1.17292e-06
1.76363e-05
0.000137125
0.00302814
0.0177519
0.0434933
0.999986
0.871395
0.0333407
1.06656e-05
2.12949e-06
7.48481e-07
2.62929e-06
2.87872e-06
3.22417e-07
3.52712e-09
2.78468e-08
2.78773e-09
9.01648e-09
2.60503e-07
4.81215e-06
6.64064e-05
0.000588316
0.00298764
0.477257
0.999986
0.999986
0.40581
0.000405558
6.95161e-07
3.7404e-07
1.56675e-07
1.68336e-07
2.88083e-08
4.36316e-09
4.46121e-09
2.85547e-09
2.91145e-09
5.79203e-08
2.43035e-07
1.78023e-06
2.54162e-05
0.000103641
0.802631
0.999986
0.999986
0.936529
0.135918
0.00170549
2.02844e-07
4.29562e-05
7.8492e-09
4.42516e-09
4.49388e-09
3.66518e-09
2.912e-09
3.87803e-09
9.05279e-06
0.00012549
2.43217e-05
5.18277e-05
0.00109294
0.866445
0.999984
0.999986
0.999861
0.858534
0.715925
0.536886
0.182592
2.09978e-08
7.84905e-09
0.085942
0.153107
0.105869
0.0476646
0.0762237
0.00020133
4.81494e-05
0.0445561
0.244899
0.910655
0.437559
0.958187
0.997996
0.992317
0.984848
0.973838
0.926515
0.701218
0.572171
0.686775
0.842345
0.84694
0.808438
0.80898
0.572407
0.642247
0.797228
0.931655
0.944253
0.00578455
0.130217
0.398715
0.709562
0.943017
0.956356
0.948236
0.946193
0.936136
0.920064
0.912921
0.915508
0.917728
0.923799
0.935914
0.942949
0.944179
0.944253
0.944253
0.000148318
0.000184121
0.000573663
0.0439155
0.163041
0.339733
0.515317
0.629321
0.712817
0.765164
0.772349
0.7661
0.760393
0.78449
0.909203
0.942829
0.944089
0.944183
0.942322
0.000139001
0.000172775
0.000193704
0.000469973
0.00100319
0.0008837
0.00672572
0.0242736
0.0555073
0.0878286
0.0956648
0.0932563
0.0941865
0.105346
0.156375
0.411783
0.889388
0.944089
0.910385
0.000340143
0.000298394
0.000499649
0.000676939
0.000549009
0.000386645
0.000150549
3.79999e-05
8.03144e-05
0.000116125
0.000110446
0.00018882
0.000390751
0.000783329
0.00272879
0.0105908
0.535102
0.931376
0.916631
0.000328083
0.000445246
0.000521773
0.000497555
0.000235952
3.85189e-05
5.09126e-06
6.38525e-07
7.55575e-07
2.40839e-06
4.12206e-06
9.58863e-06
0.000112327
0.000187421
0.000688306
0.00360792
0.559775
0.920834
0.828034
8.48042e-05
0.000104483
9.20212e-05
2.32564e-05
4.64565e-08
5.21314e-08
1.53639e-08
5.63253e-08
2.02393e-07
4.84518e-07
1.44008e-06
3.36636e-06
1.46535e-05
0.000196862
0.00112803
0.0908351
0.731311
0.920752
0.711535
1.02003e-10
5.2613e-10
1.90719e-08
4.43405e-09
6.40105e-09
1.43989e-09
1.30045e-09
5.01519e-08
1.749e-07
1.99916e-07
4.65535e-07
5.33566e-06
9.06766e-05
0.000795876
0.0143848
0.497246
0.919108
0.920799
0.710935
9.10305e-10
2.25928e-09
1.80801e-09
5.34253e-10
6.70474e-10
6.63964e-10
8.37156e-10
1.47091e-09
5.43064e-09
6.54083e-07
1.80702e-06
8.3024e-06
8.52128e-05
0.000810939
0.00845194
0.359698
0.860291
0.920801
0.711141
1.11649e-10
2.1748e-10
3.56492e-10
4.57959e-10
5.8885e-10
6.43473e-10
6.7288e-10
8.06481e-10
3.87703e-09
1.06405e-06
6.70211e-06
1.56323e-05
0.000188035
0.0038663
0.0134607
0.00900502
0.573467
0.9208
0.878496
9.30186e-11
1.54153e-10
2.16359e-10
4.84983e-10
1.31072e-09
2.31771e-09
2.65259e-09
2.51381e-09
3.05876e-09
3.12202e-07
6.8888e-06
1.2907e-05
0.000183358
0.00189485
0.000745708
0.00214563
0.49936
0.796332
0.867941
5.14373e-11
9.09471e-11
1.24425e-10
5.82999e-10
2.66468e-09
4.13039e-09
3.82836e-09
3.11434e-09
3.4175e-09
6.07102e-09
1.75411e-06
9.94175e-06
3.32468e-05
3.44041e-05
2.15545e-05
0.0984473
0.558898
0.40022
0.59888
2.56142e-11
6.30079e-11
9.75864e-11
1.8809e-10
6.91146e-10
4.25344e-09
2.52313e-08
3.20526e-08
1.96985e-08
9.9094e-09
2.15724e-07
9.62609e-06
8.32681e-06
1.35508e-05
1.83065e-05
0.183191
0.553477
0.0648062
0.086447
1.84565e-11
6.50188e-11
1.07155e-10
1.1937e-10
1.28254e-10
4.29855e-10
2.84019e-07
1.19524e-06
1.10568e-06
8.36559e-08
6.85636e-08
6.13687e-06
6.34454e-06
7.7577e-06
2.19044e-05
0.199175
0.47272
0.0633832
0.0614369
1.8556e-11
7.48355e-11
1.17771e-10
1.21147e-10
1.28524e-10
4.15641e-10
3.30023e-07
1.68495e-06
1.69122e-06
5.47962e-07
5.533e-08
1.19085e-06
8.99375e-06
1.31266e-05
0.000428197
0.130482
0.47044
0.0619651
0.060815
1.95619e-11
1.02286e-10
1.86075e-10
1.76764e-10
1.77782e-10
1.90054e-10
5.53432e-10
3.69231e-07
1.69122e-06
1.60883e-06
5.55589e-08
7.50278e-07
1.00586e-05
1.27522e-05
0.000172999
0.061525
0.379403
0.145136
0.0607622
1.86469e-11
1.49858e-10
3.76866e-10
3.39725e-10
1.27477e-09
2.51926e-08
6.33137e-08
1.63604e-07
1.64008e-06
1.91232e-06
9.39802e-07
1.71532e-06
8.43758e-06
4.81595e-05
0.00109474
0.000919908
0.085615
0.308009
0.0607592
1.40196e-11
1.64018e-10
4.67448e-10
3.88985e-10
4.89507e-10
1.14708e-07
1.04153e-06
1.26283e-06
1.38027e-06
1.92011e-06
1.99065e-06
1.74324e-06
4.15452e-06
7.49918e-05
0.000627939
0.000676919
0.0192968
0.324039
0.0607597
8.78439e-12
1.65315e-10
4.97479e-10
4.76377e-10
5.43112e-10
9.83833e-08
1.34755e-06
1.56501e-06
1.56501e-06
1.52666e-06
9.4977e-07
9.72895e-07
1.45095e-06
4.87392e-05
0.00013581
0.00205656
0.0549068
0.324585
0.22761
6.24999e-12
1.556e-10
5.33617e-10
6.07572e-10
5.92205e-10
6.22211e-10
3.72382e-08
1.23905e-06
1.55844e-06
9.06111e-07
8.16744e-07
1.1227e-06
3.98915e-06
2.5135e-05
0.000191687
0.00156597
0.11645
0.32497
0.307398
4.94855e-12
1.01431e-10
5.466e-10
7.56738e-10
6.2215e-10
2.59146e-09
7.89886e-09
6.63653e-08
8.25441e-07
8.80641e-07
6.4943e-07
8.78622e-07
3.47331e-06
2.51281e-05
0.00022639
0.000846763
0.08022
0.315384
0.305658
1.19538e-11
5.80075e-11
4.4347e-10
6.47452e-10
6.25692e-10
7.35254e-08
2.46158e-07
1.40989e-07
3.43054e-07
7.89117e-07
4.61469e-07
8.87416e-07
8.89474e-06
0.000123681
0.000291452
0.000123338
0.000581935
0.152159
0.300934
1.50489e-11
7.00755e-11
4.88285e-10
4.61677e-10
5.29398e-10
1.13875e-07
3.07612e-07
3.06821e-07
3.06826e-07
4.25847e-07
3.91369e-07
7.07327e-07
1.1305e-05
4.03549e-05
2.44313e-05
1.91319e-05
0.000446115
0.0688519
0.295394
9.29252e-12
3.64093e-11
3.71089e-10
2.50301e-10
2.45172e-09
2.4178e-08
2.36257e-08
2.59133e-07
3.13783e-07
2.87196e-07
3.16444e-07
2.57421e-07
2.88551e-06
2.92673e-06
4.15345e-06
5.00007e-06
3.56794e-05
0.0571567
0.250544
1.61049e-12
1.11433e-11
9.52263e-11
2.51462e-11
1.1755e-09
1.43085e-08
1.27325e-08
3.5731e-08
1.49e-07
5.90001e-08
7.07262e-08
6.09185e-08
4.20739e-06
3.59908e-06
4.79057e-06
3.69032e-05
0.000117844
0.134203
0.251344
1.79149e-13
8.06999e-12
1.53474e-11
1.45749e-11
5.08858e-09
1.2826e-08
1.27332e-08
1.28309e-08
1.83373e-08
2.0512e-08
2.25391e-08
2.76856e-08
6.31206e-08
5.76881e-07
3.96456e-06
0.0001122
0.153146
0.251344
0.251608
4.53484e-14
3.66539e-12
1.45473e-11
1.45477e-11
1.90528e-09
2.95483e-09
2.42042e-08
1.30099e-08
4.64762e-07
2.34263e-05
2.49761e-05
5.8798e-05
8.15721e-06
2.73968e-06
0.00435497
0.0611155
0.2274
0.251608
0.251608
1.06802e-14
4.49187e-13
1.18911e-11
4.77509e-11
5.82458e-11
4.43147e-12
1.03031e-07
1.09344e-07
1.07782e-07
5.40962e-08
0.000273752
0.000527643
0.000376658
3.17776e-05
0.0212766
0.0347034
0.0175312
0.171164
0.251608
2.34331e-15
7.18195e-14
5.43274e-12
3.50303e-11
2.9552e-11
2.99777e-12
1.07041e-07
1.55323e-07
1.21197e-07
6.64122e-09
1.71975e-08
1.93414e-06
0.000484854
0.00514446
0.0123455
0.00689928
0.00113587
0.00495117
0.249068
5.50984e-16
1.32855e-14
1.84342e-12
2.83589e-12
4.27657e-12
2.93828e-12
1.56562e-08
9.83863e-08
6.37482e-08
2.15813e-10
6.30074e-09
5.36623e-06
8.44223e-05
0.00879521
0.00976934
0.00197355
0.000620775
0.000667411
0.223055
9.52922e-17
1.93567e-15
1.71874e-13
2.20842e-13
3.34072e-12
2.93768e-12
2.93828e-12
2.66818e-11
1.10549e-10
4.08663e-11
1.16465e-07
0.000141485
0.00658537
0.0154489
0.00899782
0.000832638
0.000473171
0.000441705
0.178985
1.23604e-17
2.42898e-16
1.98427e-15
7.69904e-15
1.00615e-12
1.07141e-15
3.95769e-10
5.03891e-10
3.52061e-10
1.2526e-11
8.56961e-12
0.00922642
0.0164995
0.0163312
0.00336328
0.000473494
0.000417032
0.000398286
0.187862
1.1131e-18
1.97302e-17
1.38878e-16
1.49889e-15
7.96201e-14
1.03462e-17
1.50268e-10
2.61433e-10
1.36019e-10
8.32668e-12
6.47785e-21
0.0117336
0.0165044
0.0136374
0.000892377
0.00041886
0.000397962
0.000391912
0.18991
6.03096e-20
9.44717e-19
9.10003e-18
2.93855e-16
1.37899e-16
9.19677e-18
3.70051e-21
9.16508e-23
3.34099e-24
-9.22031e-39
-1.08033e-20
0.00239116
0.0171999
0.0150791
0.00135958
0.000408888
0.000390952
0.000393523
0.185686
1.1635e-21
1.69774e-20
2.79912e-19
9.025e-18
4.22938e-18
3.80105e-19
1.28363e-25
9.44043e-32
1.25717e-33
2.52249e-35
2.08386e-35
0.000261497
0.0177665
0.018372
0.00766516
0.000442832
0.000397271
0.000391991
0.0828546
1.27172e-27
7.94196e-26
2.86455e-24
5.8221e-24
5.80153e-25
4.21023e-28
1.3053e-35
2.81733e-41
5.7814e-44
-4.19291e-51
0
0.000139984
0.0146074
0.018372
0.0113515
0.000559008
0.0004037
0.000396591
0.0450049
)
;

boundaryField
{
    leftWall
    {
        type            zeroGradient;
    }
    rightWall
    {
        type            zeroGradient;
    }
    lowerWall
    {
        type            zeroGradient;
    }
    atmosphere
    {
        type            inletOutlet;
        inletValue      uniform 0;
        value           nonuniform List<scalar> 
46
(
0
0
0
0
0
0
0
0
0
0
0
0
0
0
0
0
0
0
0
0
0
0
0
0
0
0
0
0
0
0
0
0
0
0
0
0
0
0
0
0
0.018372
0.0113515
0.000559008
0.0004037
0.000396591
0.0450049
)
;
    }
    defaultFaces
    {
        type            empty;
    }
}


// ************************************************************************* //
