/*--------------------------------*- C++ -*----------------------------------*\
  =========                 |
  \\      /  F ield         | OpenFOAM: The Open Source CFD Toolbox
   \\    /   O peration     | Website:  https://openfoam.org
    \\  /    A nd           | Version:  13
     \\/     M anipulation  |
\*---------------------------------------------------------------------------*/
FoamFile
{
    format      ascii;
    class       surfaceScalarField;
    location    "0.45";
    object      alphaPhi.water;
}
// * * * * * * * * * * * * * * * * * * * * * * * * * * * * * * * * * * * * * //

dimensions      [0 3 -1 0 0 0 0];

internalField   nonuniform List<scalar> 
4432
(
-3.7972e-06
3.7972e-06
-4.20268e-06
4.05481e-07
-7.15236e-07
-3.48744e-06
4.88569e-06
-5.60092e-06
1.11852e-05
-6.29948e-06
1.69904e-05
-5.8052e-06
2.16907e-05
-4.70032e-06
2.51726e-05
-3.48188e-06
2.75791e-05
-2.40648e-06
2.913e-05
-1.55095e-06
3.00235e-05
-8.93517e-07
3.03831e-05
-3.5963e-07
3.01855e-05
1.976e-07
2.92342e-05
9.51365e-07
2.71955e-05
2.0387e-06
2.35183e-05
3.67718e-06
1.75267e-05
5.99159e-06
9.07611e-06
8.45061e-06
2.11655e-07
8.86446e-06
-6.5887e-06
7.42545e-06
-1.48393e-05
7.46325e-06
-1.59687e-05
-1.35494e-07
-1.5972e-05
-3.94272e-06
7.73992e-06
-3.90698e-06
3.69744e-07
-2.97722e-07
-7.09669e-06
5.28038e-06
-1.1179e-05
1.15274e-05
-1.25465e-05
1.72541e-05
-1.15318e-05
2.18727e-05
-9.31893e-06
2.52904e-05
-6.8996e-06
2.767e-05
-4.78606e-06
2.92384e-05
-3.11929e-06
3.01925e-05
-1.84765e-06
3.06762e-05
-8.43363e-07
3.08243e-05
4.95581e-08
3.07833e-05
9.92338e-07
3.05667e-05
2.25531e-06
3.00004e-05
4.24342e-06
2.8369e-05
7.62305e-06
2.39684e-05
1.28511e-05
1.47277e-05
1.81051e-05
1.4411e-06
2.0912e-05
-8.68293e-06
1.68e-05
-9.05174e-06
-1.87957e-07
-2.50267e-05
-3.51765e-06
1.12576e-05
-3.31047e-06
1.62566e-07
3.04936e-07
-1.07121e-05
5.86483e-06
-1.67389e-05
1.19565e-05
-1.86382e-05
1.7474e-05
-1.70493e-05
2.18718e-05
-1.37167e-05
2.51049e-05
-1.01328e-05
2.73727e-05
-7.05381e-06
2.89116e-05
-4.65825e-06
2.99078e-05
-2.84382e-06
3.04757e-05
-1.41123e-06
3.06624e-05
-1.37154e-07
3.0467e-05
1.18769e-06
2.99168e-05
2.80556e-06
2.91603e-05
4.99988e-06
2.85335e-05
8.24989e-06
2.78308e-05
1.35538e-05
2.47992e-05
2.11367e-05
1.694e-05
2.87713e-05
6.67845e-06
2.85514e-05
1.67202e-06
5.3505e-06
-2.33574e-05
-2.89669e-06
1.41543e-05
-2.42284e-06
-3.11286e-07
1.14534e-06
-1.42803e-05
6.55397e-06
-2.21475e-05
1.24209e-05
-2.45051e-05
1.76755e-05
-2.23039e-05
2.17941e-05
-1.78353e-05
2.47966e-05
-1.31353e-05
2.69359e-05
-9.19311e-06
2.84599e-05
-6.18224e-06
2.95344e-05
-3.91833e-06
3.02444e-05
-2.12124e-06
3.06132e-05
-5.05886e-07
3.0613e-05
1.18788e-06
3.02125e-05
3.20601e-06
2.94237e-05
5.78872e-06
2.84718e-05
9.20179e-06
2.80827e-05
1.39429e-05
2.83349e-05
2.08845e-05
2.70993e-05
3.00069e-05
2.20929e-05
3.38909e-05
1.17397e-05
1.58023e-05
-1.16157e-05
-2.10114e-06
1.62554e-05
-1.21368e-06
-1.19874e-06
2.16015e-06
-1.76541e-05
7.21363e-06
-2.7201e-05
1.27865e-05
-3.0078e-05
1.77662e-05
-2.72836e-05
2.16019e-05
-2.1671e-05
2.43771e-05
-1.59105e-05
2.64054e-05
-1.12214e-05
2.79448e-05
-7.72167e-06
2.91355e-05
-5.10903e-06
3.00269e-05
-3.01265e-06
3.06105e-05
-1.08942e-06
3.08453e-05
9.53004e-07
3.07063e-05
3.34502e-06
3.01976e-05
6.29744e-06
2.93854e-05
1.0014e-05
2.86545e-05
1.46738e-05
2.90275e-05
2.05116e-05
3.04599e-05
2.85745e-05
2.90063e-05
3.53445e-05
1.83445e-05
2.64667e-05
6.70953e-06
-1.06839e-06
1.73238e-05
3.70177e-07
-2.63731e-06
3.4662e-06
-2.07501e-05
8.03953e-06
-3.17743e-05
1.31814e-05
-3.52199e-05
1.77866e-05
-3.18887e-05
2.12966e-05
-2.5181e-05
2.38562e-05
-1.84701e-05
2.58206e-05
-1.31858e-05
2.74349e-05
-9.33597e-06
2.87977e-05
-6.47184e-06
2.99149e-05
-4.12985e-06
3.07431e-05
-1.91765e-06
3.12139e-05
4.82216e-07
3.13048e-05
3.25418e-06
3.10445e-05
6.55767e-06
3.05251e-05
1.05334e-05
2.98571e-05
1.53419e-05
2.95658e-05
2.08029e-05
3.06868e-05
2.74535e-05
3.06426e-05
3.53886e-05
2.14515e-05
3.56587e-05
2.81431e-05
1.581e-07
1.71657e-05
2.44032e-06
-4.91952e-06
5.70086e-06
-2.40106e-05
9.82851e-06
-3.59016e-05
1.42256e-05
-3.96164e-05
1.81124e-05
-3.5775e-05
2.1096e-05
-2.81642e-05
2.33662e-05
-2.07402e-05
2.526e-05
-1.50794e-05
2.69696e-05
-1.10455e-05
2.85332e-05
-8.03549e-06
2.99069e-05
-5.50351e-06
3.10095e-05
-3.02022e-06
3.17581e-05
-2.66419e-07
3.20808e-05
2.93153e-06
3.20208e-05
6.61768e-06
3.16867e-05
1.08674e-05
3.12109e-05
1.58177e-05
3.06613e-05
2.13524e-05
3.07712e-05
2.73437e-05
3.06068e-05
3.5553e-05
2.3776e-05
4.24895e-05
5.1903e-05
2.11998e-06
1.50457e-05
5.56995e-06
-8.36948e-06
9.6888e-06
-2.81282e-05
1.33897e-05
-3.95983e-05
1.65077e-05
-4.2729e-05
1.91712e-05
-3.84341e-05
2.13939e-05
-3.03841e-05
2.33088e-05
-2.26532e-05
2.51009e-05
-1.68704e-05
2.68538e-05
-1.27977e-05
2.85394e-05
-9.72068e-06
3.00796e-05
-7.04358e-06
3.13756e-05
-4.31611e-06
3.23294e-05
-1.2202e-06
3.28929e-05
2.36803e-06
3.30904e-05
6.42025e-06
3.29605e-05
1.09973e-05
3.26376e-05
1.61406e-05
3.21772e-05
2.18128e-05
3.17389e-05
2.7782e-05
3.09702e-05
3.63217e-05
2.52527e-05
4.8207e-05
7.71699e-05
3.83885e-09
-1.58372e-08
1.42907e-08
-2.21285e-08
6.18187e-09
0
1.01161e-09
2.77075e-09
8.35928e-11
7.64448e-10
4.64945e-12
6.3689e-11
2.80076e-13
3.3034e-12
9.72968e-15
2.10078e-13
1.20666e-16
7.92741e-15
6.97295e-18
1.06443e-16
-1.32598e-17
7.35826e-19
-5.63132e-17
1.42799e-17
-1.03017e-15
4.94801e-16
-2.43143e-14
1.71667e-14
-2.93131e-13
1.9399e-13
-1.68066e-12
5.13096e-13
-1.06604e-11
0
-2.99432e-11
-9.78161e-12
-1.64518e-10
1.1894e-08
-3.93652e-08
5.8244e-08
-8.92961e-08
3.67721e-08
0
7.42968e-09
2.21237e-08
9.19452e-10
5.98736e-09
6.79535e-11
7.44497e-10
3.86658e-12
5.23608e-11
1.68072e-13
3.05545e-12
4.00555e-15
1.46846e-13
-3.85097e-19
3.63595e-15
-3.29009e-17
1.22876e-17
-8.9446e-16
7.44019e-16
-2.66063e-14
2.15063e-14
-4.75361e-13
3.84345e-13
-4.69749e-12
3.63817e-12
-2.82183e-11
1.29853e-11
-1.41614e-10
0
-3.13908e-10
0
-9.16503e-10
4.87895e-08
-1.03728e-07
1.90777e-07
-3.04231e-07
1.70143e-07
-2.84338e-07
1.54696e-08
6.20086e-08
1.95842e-09
1.45183e-08
1.47583e-10
1.80888e-09
7.38587e-12
1.28291e-10
2.78189e-13
6.50772e-12
6.51259e-15
3.01314e-13
5.22282e-18
8.22378e-15
-1.90752e-16
1.06546e-16
-7.37923e-15
7.09773e-15
-2.34324e-13
2.15841e-13
-3.90503e-12
3.4303e-12
-4.04175e-11
3.2658e-11
-2.30398e-10
1.42528e-10
-9.95487e-10
0
-2.43059e-09
-1.85872e-10
-6.92087e-09
2.17379e-07
-6.87188e-07
5.24871e-07
-1.89192e-06
1.15848e-07
-9.50086e-07
8.547e-09
5.55537e-08
9.64303e-10
1.86268e-08
6.8271e-11
2.27841e-09
3.14432e-12
1.58995e-10
1.11142e-13
7.96736e-12
5.59781e-15
3.26148e-13
4.22013e-17
1.1255e-14
-1.09504e-15
6.2142e-16
-4.48695e-14
4.67303e-14
-1.28644e-12
1.2949e-12
-2.20277e-11
2.09231e-11
-2.40713e-10
2.11238e-10
-1.45696e-09
1.01739e-09
-5.02069e-09
0
-1.38058e-08
-2.76788e-09
-4.38472e-08
5.10236e-07
-1.73784e-06
2.5133e-07
-1.6031e-06
1.32987e-09
-3.76388e-08
0
2.81244e-09
0
7.49388e-09
0
1.13533e-09
0
7.82274e-11
0
4.05396e-12
8.27585e-15
1.84818e-13
7.08285e-17
9.72578e-15
-4.78716e-15
2.58746e-15
-1.73975e-13
1.99987e-13
-4.9318e-12
5.44313e-12
-9.02638e-11
9.3373e-11
-1.06675e-09
1.02221e-09
-6.79444e-09
5.32921e-09
-1.74196e-08
-5.12384e-10
-5.90324e-08
-9.09286e-09
-2.1424e-07
3.20196e-07
-1.30702e-06
-1.35953e-09
-7.11126e-07
1.00706e-09
-3.66769e-08
4.62676e-09
0
1.20081e-10
8.69102e-10
0
3.13952e-10
0
2.39425e-11
0
1.50792e-12
1.70616e-14
9.88759e-14
1.27162e-16
7.18258e-15
-1.54602e-14
8.01477e-15
-4.49094e-13
5.90082e-13
-1.35743e-11
1.66698e-11
-2.71442e-10
3.07665e-10
-3.52796e-09
3.71355e-09
-2.36913e-08
2.0754e-08
-4.7543e-08
-5.83837e-09
-1.851e-07
-2.25401e-08
-7.87556e-07
-5.94793e-07
-3.61125e-05
-3.94184e-08
-1.27466e-06
-3.53697e-09
-7.13201e-08
1.21527e-10
8.56293e-11
1.14078e-10
0
0
5.29329e-11
0
9.65339e-12
0
8.50605e-13
7.57086e-15
6.13798e-14
1.49601e-16
5.38703e-15
-2.92911e-14
1.47047e-14
-6.20227e-13
6.76535e-13
-2.45511e-11
3.10555e-11
-5.41316e-10
7.14818e-10
-7.95137e-09
9.412e-09
-5.60233e-08
5.35435e-08
-1.6405e-07
-2.58449e-08
-4.14238e-07
-5.82688e-07
-2.3015e-06
-2.90669e-06
-7.32424e-05
-1.651e-07
-4.01273e-06
-2.43326e-10
-2.36782e-07
-9.15825e-11
-1.54849e-10
4.03773e-11
1.20115e-10
2.84347e-12
1.73001e-11
3.39662e-13
1.13416e-11
1.59961e-14
1.11903e-12
6.36009e-15
6.29094e-14
1.04304e-16
3.53754e-15
-1.61187e-14
2.13803e-14
-2.52517e-13
8.72184e-13
-1.11787e-11
3.15929e-11
-4.16351e-10
7.33259e-10
-8.6112e-09
1.18036e-08
-6.78537e-08
7.84916e-08
-4.72837e-07
-1.56776e-07
-6.31777e-07
-3.41112e-06
-5.16646e-06
1.20212e-05
3.02448e-06
2.7063e-05
-2.34094e-05
3.92642e-05
-4.02867e-05
4.37837e-05
-4.40178e-05
4.42839e-05
-4.31182e-05
4.50406e-05
-3.91041e-05
4.74333e-05
-3.27242e-05
5.10785e-05
-2.62597e-05
5.5317e-05
-2.10784e-05
5.96618e-05
-1.71184e-05
6.37255e-05
-1.37662e-05
6.72273e-05
-1.05325e-05
7.0012e-05
-7.09304e-06
7.19448e-05
-3.14937e-06
7.28356e-05
1.47763e-06
7.34479e-05
5.8079e-06
7.36233e-05
1.0822e-05
7.35159e-05
1.62479e-05
7.35332e-05
2.17955e-05
7.37744e-05
2.75408e-05
7.53206e-05
3.47755e-05
8.14945e-05
4.20331e-05
5.70639e-05
0.000101602
2.28825e-05
-1.9858e-05
4.71706e-05
-4.31727e-05
5.13098e-05
-2.82166e-05
4.71055e-05
-1.64291e-05
4.21659e-05
-1.6257e-05
3.91927e-05
-1.78593e-05
4.00885e-05
-1.75873e-05
4.49017e-05
-1.69626e-05
5.20048e-05
-1.65457e-05
5.97197e-05
-1.59732e-05
6.68797e-05
-1.4733e-05
7.26287e-05
-1.25249e-05
7.63809e-05
-9.20089e-06
7.84092e-05
-4.84235e-06
7.98146e-05
1.27266e-07
7.96792e-05
5.9433e-06
7.92602e-05
1.1241e-05
7.87921e-05
1.6716e-05
7.95049e-05
2.10827e-05
8.19368e-05
2.51089e-05
8.69203e-05
2.9792e-05
9.58578e-05
3.30956e-05
3.8836e-05
0.000114056
2.17256e-05
-1.45572e-05
1.09028e-05
-9.17404e-07
5.01239e-06
-1.83317e-08
3.97149e-06
-5.63788e-19
4.18048e-06
-5.53026e-18
3.40818e-06
-7.7439e-17
3.2136e-06
-2.65968e-15
4.34612e-06
-7.104e-14
6.98795e-06
-1.50261e-12
1.12248e-05
-2.60534e-11
1.74056e-05
-3.99709e-10
2.63163e-05
-5.6678e-09
3.8838e-05
-7.69322e-08
5.57946e-05
-1.19663e-06
7.15944e-05
-1.89047e-06
8.31874e-05
1.87945e-06
8.4259e-05
1.01697e-05
8.1256e-05
1.9719e-05
8.08615e-05
2.14773e-05
8.31985e-05
2.2772e-05
8.73952e-05
2.55954e-05
9.28869e-05
2.76039e-05
2.90892e-05
0.000102634
9.35736e-07
-8.58001e-22
1.83317e-08
-1.97068e-20
-1.70471e-21
-2.3275e-19
-1.01348e-19
-3.45493e-20
-1.51179e-18
-7.2753e-19
-6.99136e-17
-5.84104e-18
-2.64562e-15
-5.3816e-17
-7.22912e-14
-1.09519e-15
-1.53977e-12
-2.7889e-14
-2.70103e-11
-4.46822e-13
-4.22869e-10
-3.70996e-12
-6.08367e-09
-6.65272e-12
-8.29734e-08
-3.92183e-11
-3.22654e-07
-1.1343e-09
2.18061e-06
-1.51544e-08
1.00671e-05
-1.13062e-07
2.75864e-05
0
5.62399e-05
4.43918e-07
8.24308e-05
5.87463e-06
8.9763e-05
1.54399e-05
9.19042e-05
2.34541e-05
9.43523e-05
2.51559e-05
2.57857e-05
9.76551e-05
-4.37581e-22
-5.83544e-22
-8.38435e-21
-1.20103e-20
-1.20462e-19
-1.21997e-19
-2.22676e-19
-5.55393e-19
-1.82226e-18
-6.14443e-18
-3.01951e-18
-3.22352e-17
-6.47757e-18
-9.49225e-17
-3.50043e-16
-7.85363e-16
-6.8797e-15
-2.15154e-14
-1.32547e-13
-3.25129e-13
-2.18167e-13
-3.6994e-12
-6.76246e-13
-6.25494e-12
-3.70857e-11
-2.45545e-12
-1.13975e-09
-2.83363e-11
-1.55624e-08
-6.57241e-10
-1.23063e-07
-4.71592e-09
-1.31359e-07
-1.7605e-08
6.0498e-07
-2.57541e-08
8.64066e-06
-4.22103e-08
2.92638e-05
0
6.3293e-05
6.03132e-07
9.18968e-05
8.20063e-06
1.74505e-05
0.000100231
-5.5533e-22
-7.53456e-23
-7.69012e-21
-5.23833e-21
-1.56622e-19
-1.55263e-19
-3.27271e-18
-4.12613e-18
-2.83324e-17
-4.49067e-17
-7.43172e-17
-1.7821e-16
-1.29813e-16
-3.23054e-16
0
-1.12911e-15
0
-4.74478e-14
-2.9543e-12
-4.13446e-12
-4.92487e-12
-1.54924e-11
-1.65184e-12
-1.32676e-11
0
-3.46354e-12
-2.47443e-11
6.70457e-13
-7.34309e-10
-5.52073e-12
-2.0169e-09
-4.35305e-09
-2.43346e-09
-1.88142e-08
-3.3024e-09
-2.54781e-08
-1.88944e-08
-2.65573e-08
-4.60051e-09
-2.14674e-08
9.80042e-07
-1.12832e-07
1.38901e-05
-5.85562e-08
2.64659e-08
4.32712e-05
-8.94594e-23
-1.48266e-23
-2.9893e-21
-2.39442e-21
-2.37123e-19
-1.27613e-19
-9.2788e-18
-4.60835e-18
-8.32757e-17
-6.27401e-17
-1.79103e-16
-2.44951e-16
-2.11247e-16
-3.75795e-16
-7.28888e-16
-7.84385e-16
0
-3.35518e-14
-9.08778e-12
-4.73097e-12
-9.00666e-12
-1.48541e-11
-6.8672e-12
-1.46959e-11
-2.14531e-12
-5.15057e-12
-4.79784e-12
-2.49501e-13
-1.22941e-10
-2.5895e-13
-1.42007e-10
-3.6594e-09
0
-6.50291e-09
2.66128e-09
-2.06708e-08
1.29892e-08
-1.71095e-08
3.15039e-08
-1.25644e-09
4.32202e-08
-1.95296e-08
2.22045e-08
-1.68207e-08
0
5.93839e-08
-1.67145e-23
-2.34017e-24
-1.61122e-21
-8.76143e-22
-1.58027e-19
-5.35463e-20
-8.77968e-18
-3.63767e-18
-8.41032e-17
-6e-17
-1.74153e-16
-2.47792e-16
-1.78068e-16
-3.71593e-16
-6.32292e-16
-2.94288e-16
-3.17724e-14
-2.71939e-15
-4.24455e-12
-1.01523e-12
-9.38018e-12
-9.00201e-12
-5.94896e-12
-9.40704e-12
-3.36122e-12
-1.19268e-12
0
-2.09799e-12
1.79869e-11
-1.73739e-11
4.57703e-10
-2.10552e-11
1.80904e-10
-3.90681e-13
1.24125e-09
-1.61979e-14
1.20099e-09
-1.15328e-12
1.41423e-10
-1.17349e-10
1.10288e-08
-3.63346e-09
2.86699e-08
-8.18241e-09
-1.57046e-11
1.67007e-08
-2.45845e-24
-2.50813e-25
-6.49935e-22
-2.28839e-22
-5.30079e-20
-1.59964e-20
-4.67572e-18
-1.61327e-18
-6.25723e-17
-3.26245e-17
-1.54975e-16
-1.72116e-16
-1.27866e-16
-3.17605e-16
-1.8719e-16
-2.94853e-16
0
-9.72756e-16
-4.611e-13
-1.4397e-14
-6.92655e-13
-2.54533e-14
0
-7.68604e-14
-1.02411e-12
-1.19111e-13
1.7753e-13
-1.47855e-11
1.70158e-11
-4.852e-11
3.35237e-13
-4.38157e-12
5.56035e-15
-5.92263e-14
8.20576e-16
-7.96652e-15
1.5048e-14
-1.15875e-12
1.04271e-10
-3.41337e-10
1.6666e-09
-7.67732e-09
5.34523e-09
-2.12068e-08
-8.48538e-09
6.54676e-09
-2.58528e-25
-3.63528e-26
-1.86257e-22
-4.37077e-23
-1.46779e-20
-4.15118e-21
-1.41501e-18
-5.91478e-19
-2.08454e-17
-1.18632e-17
-7.77894e-17
-6.10936e-17
-8.26486e-17
-1.50844e-16
-2.45428e-16
-1.92264e-16
-2.58559e-16
-9.45122e-16
-4.05298e-16
-1.42416e-14
-9.52369e-16
-2.46185e-14
-3.15995e-14
-4.54661e-14
0
-2.71269e-13
6.51699e-13
-8.25803e-12
1.33831e-11
-2.4796e-12
5.99141e-14
-1.25718e-13
1.92079e-15
-1.08445e-15
1.58694e-15
-5.67991e-15
0
-7.36874e-13
0
-7.95137e-11
-2.0328e-09
-6.18006e-09
-8.19725e-10
-1.8478e-08
-1.41956e-08
2.30335e-09
-2.36025e-26
-1.47632e-26
-3.73127e-23
-6.46636e-24
-3.97206e-21
-7.95406e-22
-4.1494e-19
-1.61085e-19
-4.687e-18
-3.41158e-18
-2.0019e-17
-1.60118e-17
-2.64053e-17
-4.75281e-17
-4.01743e-17
-1.11495e-16
-1.2787e-15
-3.99021e-16
-1.68974e-15
-1.19333e-14
-1.47686e-15
-3.20815e-14
0
-8.10707e-14
-2.96876e-14
-8.63745e-14
7.53285e-14
-9.60738e-15
2.15586e-13
-4.61808e-15
9.23628e-17
-1.35213e-15
-1.26883e-17
-7.04388e-16
-5.14123e-15
-2.07875e-16
-7.07829e-13
-1.57623e-14
-7.81574e-11
-1.48144e-12
-5.65488e-10
-6.29007e-11
-7.4011e-09
-1.2279e-09
-9.41487e-09
-9.21538e-09
-3.23691e-27
-9.98624e-27
-5.66723e-24
-7.96482e-25
-7.53926e-22
-1.25851e-22
-9.91272e-20
-3.23532e-20
-9.09004e-19
-7.46191e-19
-3.52264e-18
-3.5832e-18
-9.58778e-18
-1.37889e-17
-1.62718e-17
-5.55277e-17
-3.54374e-16
-8.23211e-17
-1.42235e-15
-2.0612e-15
-4.36236e-15
-2.39091e-14
-2.48958e-15
-7.26943e-14
-2.25856e-17
-8.89486e-14
-1.46236e-17
-9.31313e-15
-1.9498e-17
-4.34608e-15
-4.87295e-17
-1.05672e-15
-2.36564e-17
-4.60382e-16
-1.09062e-16
-8.92936e-17
-1.29923e-14
-8.46881e-17
-1.24449e-12
-1.02401e-15
-6.41075e-11
-2.72533e-14
-1.29141e-09
-5.6039e-13
-8.91821e-12
-2.26243e-09
-1.72204e-27
-2.1575e-27
-7.27472e-25
-6.62873e-26
-1.11214e-22
-1.97599e-23
-1.70734e-20
-5.35713e-21
-1.47798e-19
-1.27169e-19
-6.4629e-19
-6.06103e-19
-5.21585e-18
-3.02981e-18
-7.44304e-18
-2.20563e-17
-2.04247e-17
-5.35678e-17
-4.5976e-16
-2.13863e-16
-7.09627e-15
-5.27821e-15
-7.52581e-15
-3.57297e-14
-1.97228e-15
-4.83065e-14
-6.41277e-16
-1.432e-14
-2.21881e-16
-3.85543e-15
-1.00229e-16
-7.31982e-16
-2.95414e-17
-2.02357e-16
-1.13524e-17
-7.37392e-17
-4.2469e-17
-3.46384e-17
-1.00555e-15
-4.41167e-17
-2.81337e-14
-1.13771e-16
-5.88308e-13
-2.04621e-16
-2.59841e-16
-9.50623e-12
-2.05257e-28
-1.64519e-28
-5.95587e-26
-7.5748e-27
-1.51989e-23
-3.49009e-24
-2.50377e-21
-7.19317e-22
-1.95141e-20
-1.71164e-20
-9.16725e-20
-8.13915e-20
-1.11528e-18
-5.89265e-19
-3.82718e-18
-6.18172e-18
-8.92118e-18
-2.83971e-17
-9.71593e-17
-1.48279e-16
-2.03107e-15
-6.48312e-16
-4.30906e-15
-1.81776e-15
-3.70914e-15
-1.16111e-15
-1.33924e-15
-2.7777e-15
-2.02411e-16
-1.37786e-15
-5.1979e-17
-1.29305e-16
-2.92162e-17
-2.74401e-17
-1.27641e-17
-1.1724e-17
-1.72995e-17
-1.21322e-17
-2.3305e-17
-3.49229e-17
-3.52379e-17
-9.60601e-17
-5.35795e-17
-1.73132e-16
-2.13628e-16
-9.89555e-17
-1.6802e-29
-1.14119e-29
-6.34984e-27
-1.09966e-27
-1.84105e-24
-7.38047e-25
-3.00685e-22
-7.66006e-23
-2.1005e-21
-1.78483e-21
-1.22325e-20
-8.89282e-21
-1.81899e-19
-1.05429e-19
-1.27089e-18
-1.50782e-18
-1.06617e-17
-1.38897e-17
-4.95173e-17
-7.0826e-17
-1.19422e-16
-5.74577e-17
-9.62369e-18
-5.06991e-18
-3.35934e-16
-3.61198e-18
-3.01201e-16
-5.66249e-18
-3.80458e-17
-1.9077e-17
-8.4e-18
-7.42049e-18
-2.77699e-18
-3.7628e-18
-3.42206e-18
-1.51497e-18
-9.59176e-18
-9.23487e-19
-4.46255e-17
-2.32001e-18
-1.29502e-16
-1.26092e-17
-2.1192e-16
-6.31994e-17
-1.61873e-16
-2.85508e-16
-1.26495e-30
-6.96372e-31
-9.14978e-28
-1.72669e-28
-2.0111e-25
-1.46928e-25
-2.79644e-23
-6.53057e-24
-1.85531e-22
-1.39424e-22
-1.45833e-21
-7.69481e-22
-2.7416e-20
-1.77528e-20
-5.28141e-19
-3.197e-19
-9.79978e-18
-2.55131e-18
-9.64233e-18
-6.47481e-18
-7.51803e-19
-7.07712e-18
-8.46579e-19
-4.72771e-18
-5.65209e-19
-3.82781e-18
-3.07097e-18
-1.86516e-18
-2.01509e-18
-7.56794e-19
-1.24696e-18
-5.69285e-19
-5.64038e-19
-3.99031e-19
-3.04266e-19
-1.71195e-19
-4.3774e-19
-1.36672e-19
-2.01814e-18
-6.02592e-19
-1.61694e-17
-3.9681e-18
-1.00551e-16
-2.09158e-17
-7.2946e-17
-3.48133e-16
-8.96375e-32
-3.41339e-32
-1.43046e-28
-2.65474e-29
-2.11357e-26
-2.10668e-26
-1.94468e-24
-4.60213e-25
-1.28732e-23
-7.79711e-24
-1.62204e-22
-5.25655e-23
-6.30125e-21
-2.35688e-21
-1.43465e-19
-4.20674e-20
-7.15489e-19
-3.00206e-19
-1.19532e-18
-9.70064e-19
-1.34768e-18
-2.82448e-18
-1.39959e-18
-4.01642e-18
-8.88415e-19
-3.03854e-18
-2.16802e-19
-1.23194e-18
-1.59659e-19
-1.66861e-19
-1.35619e-19
-4.43105e-20
-6.16092e-20
-2.3737e-20
-5.56547e-20
-1.65777e-20
-9.5172e-20
-3.04086e-20
-7.20074e-19
-1.86251e-19
-6.14338e-18
-1.39298e-18
-3.71563e-17
-8.10445e-18
-3.0672e-17
-1.44516e-16
-5.51453e-33
-1.21612e-33
-2.4003e-29
-3.07465e-30
-2.12642e-27
-1.96325e-27
-9.58106e-26
-2.78288e-26
-6.82055e-25
-2.90277e-25
-1.7675e-23
-3.1481e-24
-8.75749e-22
-2.46263e-22
-1.3927e-20
-3.73809e-21
-6.72044e-20
-2.33799e-20
-3.53139e-19
-1.70802e-19
-9.69589e-19
-5.76404e-19
-9.63056e-19
-9.63863e-19
-5.1217e-19
-3.63369e-19
-7.41778e-20
-1.2962e-19
-1.74156e-20
-2.75688e-20
-8.87257e-21
-6.1439e-21
-6.02653e-21
-2.45677e-21
-7.60089e-21
-2.12881e-21
-2.65834e-20
-6.34624e-21
-2.4961e-19
-5.54511e-20
-2.41958e-18
-4.66822e-19
-1.68422e-17
-3.04383e-18
-1.27244e-17
-6.88419e-17
-2.74711e-34
-2.56771e-35
-3.18074e-30
-1.72898e-31
-1.96594e-28
-1.0981e-28
-3.19283e-27
-1.35969e-27
-2.56195e-26
-6.65362e-27
-1.88683e-24
-2.013e-25
-8.89827e-23
-2.05176e-23
-7.86463e-22
-3.33439e-22
-9.86838e-21
-2.57868e-21
-6.67677e-20
-2.05733e-20
-1.83277e-19
-4.82556e-20
-1.10756e-19
-4.41182e-20
-4.68616e-20
-2.8381e-20
-1.26057e-20
-1.25001e-20
-2.95935e-21
-3.97695e-21
-9.40613e-22
-9.4072e-22
-8.63286e-22
-2.57697e-22
-1.15983e-21
-2.56346e-22
-6.87307e-21
-1.39468e-21
-8.05833e-20
-1.57542e-20
-8.9107e-19
-1.51071e-19
-7.23435e-18
-1.14743e-18
-5.41278e-18
-3.24792e-17
-9.00906e-36
-2.90601e-37
-1.93864e-31
-3.86782e-33
-1.62398e-29
-2.86052e-30
-9.5732e-29
-3.76721e-29
-6.90842e-28
-1.14699e-28
-1.43809e-25
-1.75491e-26
-6.97284e-24
-1.6499e-24
-8.09349e-23
-3.16153e-23
-1.54483e-21
-2.29267e-22
-8.29561e-21
-1.28494e-21
-9.16896e-21
-2.30376e-21
-7.95346e-21
-2.44166e-21
-4.57981e-21
-2.11078e-21
-1.85078e-21
-1.34795e-21
-5.08149e-22
-5.44367e-22
-9.6338e-23
-1.08398e-22
-1.0683e-22
-1.85287e-23
-1.73361e-22
-3.15701e-23
-1.75622e-21
-3.24917e-22
-2.41424e-20
-4.2742e-21
-3.22147e-19
-4.81216e-20
-3.25265e-18
-4.71225e-19
-2.66982e-18
-1.60913e-17
-1.86351e-37
-2.75995e-40
-4.60871e-33
-8.2659e-37
-7.28926e-31
-7.0039e-34
-2.41345e-30
-4.97224e-32
-2.57262e-29
-4.10597e-30
-1.03036e-26
-1.33675e-27
-6.8465e-25
-1.15523e-25
-9.00685e-24
-2.73329e-24
-1.20665e-22
-1.87673e-23
-3.88193e-22
-6.37872e-23
-4.99402e-22
-1.52139e-22
-5.44857e-22
-1.86951e-22
-4.66827e-22
-1.78487e-22
-2.57e-22
-1.29435e-22
-6.443e-23
-5.76841e-23
-7.46275e-24
-1.20314e-23
-8.70481e-24
-2.5868e-24
-2.91214e-23
-6.48946e-24
-4.35481e-22
-8.00713e-23
-6.65747e-21
-1.14549e-21
-1.1977e-19
-1.60583e-20
-1.69176e-18
-2.24919e-19
-1.57621e-18
-9.39582e-18
-4.12876e-39
4.91887e-40
-6.76173e-37
-6.60097e-38
-8.55134e-35
-6.8034e-35
-4.44738e-33
-4.60169e-33
-1.66759e-30
-2.47698e-31
-6.16975e-28
-4.37043e-29
-5.87587e-26
-5.10132e-27
-9.98346e-25
-1.47255e-25
-5.48669e-24
-1.17049e-24
-2.35919e-23
-4.05202e-24
-3.99053e-23
-1.00597e-23
-4.48636e-23
-1.248e-23
-4.36628e-23
-1.16834e-23
-2.6893e-23
-8.17915e-24
-7.11638e-24
-3.49972e-24
-1.11647e-24
-7.32472e-25
-1.3562e-24
-2.89649e-25
-6.72174e-24
-1.28287e-24
-1.06093e-22
-1.94624e-23
-1.8137e-21
-3.22122e-22
-4.94535e-20
-5.9081e-21
-1.03308e-18
-1.20231e-19
-1.01656e-18
-6.34068e-18
-3.26306e-41
1.16837e-42
-6.30421e-38
-1.41799e-39
-7.61407e-36
-1.56458e-36
-4.07428e-34
-1.51394e-34
-5.2272e-32
-5.13222e-33
-2.15643e-29
-2.36709e-31
-2.67109e-27
-9.10699e-29
-5.83464e-26
-4.15873e-27
-3.43445e-25
-3.9073e-26
-1.563e-24
-1.59013e-25
-2.68423e-24
-4.20196e-25
-2.99535e-24
-5.09273e-25
-2.81163e-24
-4.6407e-25
-1.6453e-24
-3.09239e-25
-3.9494e-25
-1.23476e-25
-1.2732e-25
-2.7878e-26
-1.69168e-25
-2.81806e-26
-1.43141e-24
-2.67901e-25
-2.58297e-23
-4.97299e-24
-5.34475e-22
-9.76262e-23
-2.25491e-20
-2.29725e-21
-6.75028e-19
-6.35544e-20
-6.29999e-19
-4.43305e-18
-7.02339e-44
4.64633e-45
-1.36432e-39
-5.96762e-42
-2.70575e-37
-6.00147e-40
-1.41838e-34
-1.57935e-38
-3.66565e-34
-1.8578e-36
-2.39681e-31
-4.48004e-34
-5.99357e-29
-1.31875e-31
-1.64753e-27
-2.7745e-29
-1.22828e-26
-4.53647e-28
-6.50459e-26
-2.71563e-27
-1.08004e-25
-6.91568e-27
-1.19491e-25
-7.69901e-27
-1.07649e-25
-6.82257e-27
-5.83635e-26
-4.63266e-27
-1.01788e-26
-2.15978e-27
-1.12923e-26
-9.25001e-28
-2.04742e-26
-3.31969e-27
-3.19258e-25
-6.15003e-26
-6.72937e-24
-1.3261e-24
-1.7064e-22
-3.00215e-23
-1.01073e-20
-8.38266e-22
-4.0978e-19
-2.85481e-20
-3.18428e-19
-2.84705e-18
-7.57608e-46
1.06574e-46
-5.74697e-43
-4.44179e-45
-3.65846e-41
-4.94447e-43
-1.72613e-39
-6.22385e-41
-2.97244e-37
-8.47661e-39
-4.41607e-34
-3.13544e-36
-2.05195e-31
-2.27281e-34
-1.26932e-29
-5.5699e-32
-1.93616e-28
-1.00905e-30
-1.11685e-27
-5.21405e-30
-1.60014e-27
-1.39723e-29
-1.7481e-27
-2.08717e-29
-1.55764e-27
-2.16579e-29
-9.18519e-28
-1.97683e-29
-3.41616e-28
-1.63297e-29
-4.20666e-28
-3.6167e-29
-3.16724e-27
-5.9711e-28
-7.62648e-26
-1.47764e-26
-1.83335e-24
-3.59911e-25
-5.36329e-23
-8.77576e-24
-3.94777e-21
-2.64199e-22
-2.01704e-19
-1.03325e-20
-1.25229e-19
-1.45079e-18
-3.27172e-48
8.79348e-49
-1.37475e-46
-8.90867e-48
-4.247e-44
-1.16384e-44
-5.47421e-42
-8.54851e-43
-3.41399e-39
-4.07776e-41
-3.56843e-37
-2.11215e-39
-3.5944e-34
-7.18383e-37
-2.99811e-32
-1.8866e-34
-3.57191e-31
-4.40816e-33
-1.75596e-30
-2.80182e-32
-4.00286e-30
-9.25675e-32
-5.0639e-30
-1.94866e-31
-5.53238e-30
-2.9881e-31
-5.09076e-30
-3.19868e-31
-5.87046e-30
-4.51112e-31
-2.52236e-29
-4.81195e-30
-6.35369e-28
-1.32044e-28
-1.89855e-26
-3.69881e-27
-5.0167e-25
-9.75646e-26
-1.53411e-23
-2.41899e-24
-1.27465e-21
-7.35707e-23
-8.05466e-20
-3.20609e-21
-4.28088e-20
-5.9495e-19
4.28104e-51
2.23913e-52
-2.53336e-48
-5.37351e-52
-1.07757e-45
-6.20962e-49
-9.71714e-43
-4.97319e-47
-2.22896e-42
-1.92518e-45
-1.91221e-39
-1.67667e-43
-9.07393e-37
-3.95681e-41
-1.01633e-34
-9.20664e-39
-1.54003e-33
-3.03685e-36
-8.81599e-33
-8.26411e-35
-2.75276e-32
-5.38615e-34
-6.18045e-32
-1.77545e-33
-7.63925e-32
-2.82319e-33
-9.33402e-32
-3.36369e-33
-2.07743e-31
-2.71497e-32
-4.11805e-30
-9.2272e-31
-1.41956e-28
-3.02848e-29
-4.81474e-27
-9.22021e-28
-1.33366e-25
-2.5227e-26
-3.95802e-24
-6.04818e-25
-3.48503e-22
-1.77107e-23
-2.86552e-20
-8.52486e-22
-1.26023e-20
-2.18357e-19
1.3778e-53
1.54716e-55
-1.00675e-52
-6.81472e-54
-6.26153e-50
-1.29907e-52
-4.12961e-48
-2.62649e-50
-1.72276e-46
-6.60657e-48
-2.7099e-44
-1.22219e-45
-7.97333e-42
-2.99229e-44
-1.37079e-38
-5.12082e-42
-1.98278e-36
-2.08227e-39
-3.18422e-35
-1.91092e-37
-2.16374e-34
-1.59038e-36
-5.05392e-34
-5.77519e-36
-6.64334e-34
-1.04691e-35
-1.08907e-33
-9.2482e-35
-1.88171e-32
-4.33903e-33
-7.94844e-31
-1.84621e-31
-3.12907e-29
-6.81015e-30
-1.15857e-27
-2.11842e-28
-3.24833e-26
-5.86718e-27
-8.79997e-25
-1.33608e-25
-7.77989e-23
-3.64981e-24
-8.80299e-21
-1.86644e-22
-3.07633e-21
-6.78319e-20
3.10532e-56
8.75555e-59
-6.05531e-56
-5.2376e-58
-6.54151e-54
-4.29472e-55
-2.77788e-51
-2.34892e-53
-4.7854e-48
-1.34095e-51
-4.66612e-46
-6.39937e-50
-4.13516e-45
-1.35151e-47
-5.28519e-42
-2.31495e-45
-2.98638e-39
-2.6515e-43
-7.63638e-38
-4.35426e-41
-5.72695e-37
-7.4246e-40
-1.12017e-36
-5.82162e-39
-2.59009e-36
-3.13502e-37
-5.12311e-35
-1.25011e-35
-2.95221e-33
-7.0821e-34
-1.50137e-31
-3.43414e-32
-6.25735e-30
-1.35545e-30
-2.41771e-28
-4.17604e-29
-6.76812e-27
-1.18911e-27
-1.63047e-25
-2.61712e-26
-1.34873e-23
-6.52133e-25
-2.17084e-21
-3.38634e-23
-6.35839e-22
-1.71103e-20
2.32704e-59
2.49149e-64
-4.91516e-59
-3.94644e-59
-2.05483e-56
-3.59441e-57
-2.09213e-54
-1.14648e-54
-8.58733e-53
-2.45312e-53
-8.94077e-51
-4.62559e-51
-3.11509e-48
-3.92606e-49
-4.15881e-46
-1.28974e-46
-3.01846e-43
-1.21636e-44
-1.60394e-41
-1.63198e-43
-1.198e-40
-1.21574e-41
-2.28711e-39
-5.06542e-40
-1.07156e-37
-4.08073e-38
-6.43753e-36
-1.67449e-36
-4.29551e-34
-1.10906e-34
-2.461e-32
-5.27882e-33
-1.01984e-30
-2.24168e-31
-4.04537e-29
-6.90409e-30
-1.15726e-27
-2.09762e-28
-2.51395e-26
-4.75357e-27
-1.7454e-24
-1.113e-25
-4.1953e-22
-5.34996e-24
-1.2188e-22
-3.38036e-21
6.12653e-63
-2.63225e-64
-1.38725e-61
-1.23231e-60
-1.43359e-57
-2.68127e-58
-4.69876e-56
-1.18651e-55
-4.27183e-54
-1.69445e-54
-3.66607e-52
-1.64243e-52
-1.31856e-49
-3.09257e-50
-9.04632e-47
-6.35992e-48
-1.43077e-45
-5.0174e-46
-5.23605e-44
-1.4654e-44
-2.4613e-42
-1.26228e-42
-2.33343e-40
-4.59915e-41
-1.18182e-38
-3.99905e-39
-8.15645e-37
-2.28709e-37
-5.32904e-35
-1.39887e-35
-3.22595e-33
-6.47755e-34
-1.31043e-31
-3.07984e-32
-5.37861e-30
-9.78106e-31
-1.63312e-28
-3.35162e-29
-3.44369e-27
-8.40136e-28
-1.78536e-25
-2.01012e-26
-6.17772e-23
-8.28352e-25
-2.4908e-23
-4.90807e-22
1.75366e-64
-3.25695e-66
-3.98449e-64
-5.27461e-63
-1.84382e-58
-1.1305e-59
-4.47606e-57
-3.43489e-57
-1.10108e-55
-2.94231e-56
-1.78472e-53
-2.34405e-54
-7.50118e-51
-7.97411e-52
-1.78971e-48
-3.36919e-50
-6.09391e-47
-3.0431e-48
-5.33395e-45
-4.77986e-46
-2.17338e-43
-5.12929e-44
-1.60967e-41
-3.24347e-42
-1.23456e-39
-4.93546e-40
-9.29694e-38
-2.68868e-38
-5.31721e-36
-1.37004e-36
-3.46497e-34
-7.00965e-35
-1.40524e-32
-3.69861e-33
-6.12837e-31
-1.26563e-31
-2.05158e-29
-5.14158e-30
-4.62034e-28
-1.46381e-28
-1.71985e-26
-3.82328e-27
-7.01728e-24
-1.3769e-25
-5.45782e-24
-4.7535e-23
1.16023e-66
-1.8932e-67
1.27008e-65
-3.41225e-64
-7.74689e-60
-3.37072e-62
-1.12535e-58
-4.38334e-61
-1.51819e-57
-2.32515e-58
-1.12415e-54
-1.65805e-55
-7.34065e-53
-4.34044e-54
-4.05504e-51
-6.3428e-52
-6.62366e-49
-2.51516e-49
-1.30785e-46
-1.52651e-47
-8.45777e-45
-2.44638e-45
-1.66364e-42
-2.80226e-43
-1.517e-40
-4.78044e-41
-8.59759e-39
-2.24097e-39
-4.79032e-37
-1.19623e-37
-3.4343e-35
-7.7965e-36
-1.42855e-33
-4.16845e-34
-6.94834e-32
-1.60539e-32
-2.60425e-30
-7.66812e-31
-6.57926e-29
-2.40553e-29
-1.86496e-27
-6.97507e-28
-6.74416e-25
-2.3794e-26
-1.11031e-24
-2.84051e-24
4.63185e-68
-1.14847e-69
1.52667e-66
-1.53218e-66
-5.80067e-64
-2.4174e-65
-2.5223e-62
-2.08128e-62
-3.0662e-58
-7.68177e-60
-1.08496e-56
-5.47947e-57
-4.11042e-55
-1.77551e-55
-4.05104e-52
-3.23008e-53
-3.19063e-50
-1.05945e-50
-3.86216e-48
-1.19383e-48
-5.0445e-46
-2.25381e-46
-1.72224e-43
-1.92972e-44
-1.29139e-41
-2.22368e-42
-6.48561e-40
-1.34276e-40
-4.72061e-38
-1.04292e-38
-3.54647e-36
-8.47482e-37
-1.53538e-34
-4.36289e-35
-8.72418e-33
-1.89813e-33
-3.53423e-31
-1.01168e-31
-9.90165e-30
-3.40564e-30
-2.45461e-28
-1.08698e-28
-6.77503e-26
-3.81839e-27
-1.87203e-25
-9.09263e-26
2.05985e-70
-3.27066e-72
7.829e-69
-1.84156e-71
-1.60868e-66
-3.68584e-67
-1.05439e-63
-8.55425e-64
-8.04139e-60
-7.84363e-62
-3.52663e-58
-3.68357e-60
-1.94327e-56
-2.57937e-57
-1.00521e-53
-8.72596e-55
-1.59337e-51
-9.15194e-53
-4.22969e-49
-3.8234e-50
-4.85851e-47
-9.55286e-48
-7.39059e-45
-6.43223e-46
-5.75591e-43
-4.17197e-44
-4.31539e-41
-5.87766e-42
-4.88574e-39
-7.00988e-40
-3.57773e-37
-6.32561e-38
-1.63263e-35
-3.46994e-36
-1.0497e-33
-1.7022e-34
-4.50652e-32
-9.87482e-33
-1.36412e-30
-3.78707e-31
-3.47919e-29
-1.31248e-29
-7.57671e-27
-5.18372e-28
-2.48677e-26
-4.39322e-27
4.52304e-73
-1.45435e-74
6.63642e-74
-1.93289e-73
-1.78812e-67
-4.45947e-69
-1.10595e-63
-2.65908e-67
-2.86952e-63
-4.37595e-65
-2.49135e-60
-2.07279e-62
-6.41499e-57
-8.79219e-60
-9.28661e-56
-5.64958e-57
-2.43886e-53
-9.94997e-55
-1.92652e-50
-1.0782e-52
-2.39216e-48
-4.38618e-50
-1.25347e-46
-4.48079e-48
-1.35804e-44
-1.13374e-45
-2.25421e-42
-1.83054e-43
-3.28882e-40
-2.00673e-41
-2.54215e-38
-1.95365e-39
-1.2908e-36
-1.51824e-37
-8.8458e-35
-9.20679e-36
-4.31496e-33
-6.12897e-34
-1.40016e-31
-3.13563e-32
-4.11129e-30
-1.16003e-30
-7.09854e-28
-5.59136e-29
-2.56098e-27
-8.16325e-28
1.56591e-75
-1.32696e-79
8.93956e-76
-2.54468e-75
-1.08207e-70
-1.37906e-72
-1.01114e-68
-4.09819e-70
-4.39476e-66
-4.84576e-67
-2.14906e-63
-5.47167e-64
-2.52124e-60
-1.68559e-61
-2.67429e-57
-9.83318e-59
-1.28818e-55
-4.30019e-56
-6.96309e-53
-1.1686e-54
-7.29811e-51
-3.29024e-52
-1.53364e-48
-1.00042e-49
-4.06083e-46
-4.38909e-47
-6.07643e-44
-3.0504e-45
-7.51747e-42
-1.59962e-43
-7.87985e-40
-1.34623e-41
-5.41831e-38
-2.66474e-39
-4.02641e-36
-2.86616e-37
-2.75851e-34
-2.34021e-35
-9.70982e-33
-1.82393e-33