/*--------------------------------*- C++ -*----------------------------------*\
  =========                 |
  \\      /  F ield         | OpenFOAM: The Open Source CFD Toolbox
   \\    /   O peration     | Website:  https://openfoam.org
    \\  /    A nd           | Version:  13
     \\/     M anipulation  |
\*---------------------------------------------------------------------------*/
FoamFile
{
    format      ascii;
    class       volScalarField;
    location    "0.45";
    object      p;
}
// * * * * * * * * * * * * * * * * * * * * * * * * * * * * * * * * * * * * * //

dimensions      [1 -1 -2 0 0 0 0];

internalField   nonuniform List<scalar> 
2268
(
747.952
747.613
753.001
762.081
769.37
772.918
773.375
773.568
775.864
781.249
789.867
801.649
816.546
834.405
855.137
878.531
903.654
928.05
945.769
959.159
939.539
934.509
972.847
688.347
687.446
692.661
701.787
709.088
712.688
713.229
713.556
716.008
721.531
730.242
742.024
756.706
774.219
794.455
817.252
842.004
867.129
887.801
902.693
885.741
863.448
907.064
627.871
626.256
630.842
640.143
647.394
651.117
651.833
652.426
655.183
660.975
669.882
681.78
696.544
714.034
734.058
756.199
779.666
803.193
823.852
838.575
829.177
802.775
847.714
566.912
564.25
568.055
576.852
584.349
588.321
589.301
590.271
593.464
599.639
608.825
620.903
635.75
653.229
673.093
694.855
717.575
739.743
758.97
772.795
771.283
760.863
799.362
505.999
501.735
504.313
512.236
520.095
524.467
525.771
527.204
530.94
537.587
547.111
559.407
574.377
591.884
611.669
633.215
655.59
677.223
695.885
709.879
715.744
719.354
757.598
445.737
439.254
439.708
446.316
454.678
459.682
461.343
463.264
467.626
474.826
484.746
497.307
512.439
530.021
549.807
571.294
593.575
615.135
634.027
648.912
659.633
671.05
708.236
386.769
377.109
374.524
379.369
388.275
394.139
396.241
398.642
403.609
411.351
421.671
434.528
449.886
467.634
487.523
509.079
531.468
553.223
572.657
588.312
600.545
612.978
640.966
330.055
317.091
310.303
312.577
321.447
327.978
330.672
333.779
339.413
347.611
358.188
371.2
386.663
404.566
424.767
446.651
469.381
491.5
511.519
527.71
539.19
548.263
552.995
288.466
287.99
286.235
284.849
284.591
284.698
284.702
284.665
284.656
284.677
284.724
284.821
284.982
285.233
285.639
286.347
287.454
288.654
289.271
288.39
287.807
285.9
284.553
284.447
284.637
284.646
284.601
284.589
284.609
284.652
284.745
284.899
285.138
285.521
286.216
287.354
288.622
289.273
288.354
287.549
285.209
284.039
284.216
284.525
284.557
284.518
284.508
284.526
284.565
284.647
284.785
285
285.345
286.014
287.207
288.613
289.343
288.351
286.868
283.893
283.389
283.962
284.368
284.436
284.419
284.416
284.431
284.463
284.53
284.645
284.823
285.102
285.713
286.979
288.598
289.471
288.268
285.118
282.882
283.072
283.76
284.198
284.301
284.311
284.316
284.327
284.35
284.396
284.478
284.606
284.785
285.274
286.608
288.487
289.658
288.508
283.878
282.713
283.03
283.643
284.045
284.171
284.201
284.211
284.217
284.227
284.247
284.288
284.351
284.385
284.638
285.998
288.114
289.982
285.119
283.717
282.776
283.12
283.602
283.923
284.052
284.094
284.103
284.102
284.096
284.087
284.079
284.061
283.897
283.716
284.914
287.145
290.515
274.213
283.137
282.961
283.303
283.597
283.828
283.947
283.99
283.995
283.984
283.962
283.921
283.856
283.742
283.328
282.46
282.696
284.642
290.745
244.807
228.569
213.044
208.509
216.182
222.981
226.176
230.641
237.814
247.089
258.277
271.667
287.229
304.829
325.006
347.619
371.48
394.909
416.466
433.806
442.353
436.122
369.638
139.152
116.912
87.5693
71.9366
77.9582
83.922
85.3971
89.0472
96.0603
105.197
116.258
130.316
148.596
170.301
192.616
214.962
239.889
265.1
289.235
309.05
319.541
317.452
300.225
59.1939
32.282
14.0073
10.7134
13.3528
15.0001
15.1075
16.0073
18.0674
20.9149
24.3656
28.75
34.7293
43.2888
55.8221
75.3206
101.623
133.296
167.415
193.692
211.31
224.535
235.375
6.6992
5.61618
5.55097
5.65435
5.65844
5.66939
5.67669
5.67863
5.68209
5.69479
5.72312
5.77593
5.85153
5.88496
6.63141
10.3897
17.5038
33.2507
59.7233
85.5779
111.135
135.838
152.78
5.52994
5.4525
5.46392
5.50805
5.51857
5.52501
5.52989
5.53337
5.53805
5.54774
5.56527
5.59126
5.61789
5.60409
5.43941
5.36106
5.53401
6.18948
9.50715
17.0462
32.6318
55.3621
73.6523
5.38945
5.37728
5.36802
5.37358
5.3777
5.38196
5.3857
5.38882
5.39276
5.39873
5.40627
5.41096
5.40203
5.34401
5.2389
5.26077
5.3874
5.47123
5.54415
5.64989
5.9572
10.616
21.5658
5.2384
5.22975
5.22853
5.23235
5.23539
5.23823
5.24082
5.24314
5.24565
5.24871
5.25125
5.25012
5.24254
5.22073
5.15176
5.13338
5.18324
5.22833
5.26588
5.28589
5.2228
5.19117
5.26083
5.09194
5.09052
5.0909
5.09136
5.09285
5.09454
5.09615
5.09748
5.09857
5.0994
5.09909
5.0958
5.08759
5.06978
5.03852
5.02293
5.03851
5.0569
5.06354
5.05331
4.99655
4.89788
4.84599
4.94746
4.9479
4.94858
4.94884
4.9496
4.95056
4.95147
4.95207
4.95218
4.95167
4.95013
4.94698
4.94122
4.93065
4.91574
4.90277
4.90343
4.90402
4.90086
4.88238
4.83301
4.74089
4.67817
4.80301
4.80404
4.80503
4.80535
4.80579
4.80634
4.80681
4.80697
4.80661
4.80556
4.80364
4.80064
4.79621
4.78959
4.78151
4.77363
4.76925
4.76443
4.75358
4.72939
4.68481
4.60314
4.53018
4.65908
4.66017
4.66107
4.66139
4.6617
4.66203
4.66227
4.66224
4.66179
4.66075
4.65902
4.65649
4.65307
4.64855
4.64335
4.63777
4.63231
4.62561
4.61242
4.58811
4.54638
4.48212
4.42552
4.51524
4.51614
4.51688
4.51721
4.51748
4.51772
4.51788
4.51783
4.51747
4.51669
4.5154
4.51354
4.51106
4.50792
4.50431
4.49997
4.4947
4.48768
4.47561
4.45537
4.42205
4.37456
4.33222
4.37135
4.37203
4.37262
4.37294
4.37322
4.37346
4.37364
4.37369
4.37352
4.37307
4.37228
4.3711
4.36949
4.36743
4.36488
4.3616
4.35725
4.35107
4.34143
4.32671
4.3049
4.27725
4.25254
4.22732
4.22782
4.22829
4.22862
4.22894
4.22925
4.22954
4.22974
4.22983
4.22975
4.22946
4.22892
4.2281
4.22697
4.22544
4.22331
4.22031
4.21586
4.20923
4.19972
4.18708
4.17297
4.16145
4.0831
4.08348
4.08388
4.08425
4.08464
4.08506
4.0855
4.08592
4.0863
4.08661
4.08682
4.0869
4.08683
4.08658
4.08606
4.08515
4.08365
4.08126
4.07766
4.07262
4.06639
4.0605
4.05738
3.93868
3.93899
3.93938
3.93979
3.94028
3.94085
3.94147
3.94214
3.94284
3.94355
3.94426
3.94495
3.9456
3.9462
3.94668
3.94698
3.94699
3.94658
3.94565
3.94427
3.94284
3.94253
3.9449
3.79405
3.79433
3.79473
3.79522
3.79582
3.79655
3.79738
3.79831
3.79935
3.80046
3.80167
3.80295
3.80431
3.80573
3.80719
3.80867
3.81013
3.81154
3.81296
3.81453
3.81669
3.82027
3.82628
3.64918
3.64946
3.6499
3.65048
3.65121
3.6521
3.65315
3.65436
3.65573
3.65725
3.65894
3.6608
3.66282
3.66503
3.66743
3.67001
3.6728
3.67583
3.67921
3.68312
3.68794
3.6943
3.70286
3.50408
3.50437
3.50487
3.50553
3.5064
3.50746
3.50873
3.51021
3.5119
3.51382
3.51597
3.51837
3.52104
3.52399
3.52726
3.53085
3.53483
3.53927
3.54429
3.55007
3.55691
3.56529
3.57566
3.35872
3.35903
3.35959
3.36034
3.36134
3.36257
3.36405
3.36579
3.3678
3.37009
3.37268
3.37559
3.37885
3.38249
3.38655
3.39106
3.3961
3.40174
3.40811
3.41538
3.42378
3.43367
3.44535
3.21309
3.21342
3.21404
3.21488
3.21599
3.21738
3.21906
3.22105
3.22335
3.22598
3.22898
3.23237
3.23617
3.24043
3.2452
3.25053
3.25648
3.26315
3.27065
3.27912
3.28875
3.29979
3.31245
3.06711
3.06749
3.06817
3.0691
3.07033
3.07186
3.07373
3.07593
3.0785
3.08145
3.08481
3.08862
3.09292
3.09774
3.10313
3.10917
3.11592
3.12346
3.13189
3.14135
3.15196
3.16391
3.17734
2.92085
2.92125
2.92198
2.92298
2.92431
2.92598
2.928
2.93041
2.93321
2.93644
2.94012
2.94431
2.94903
2.95433
2.96028
2.96693
2.97436
2.98263
2.99185
3.00212
3.01354
3.02625
3.04033
2.77424
2.77465
2.77543
2.77649
2.77791
2.77969
2.78186
2.78443
2.78744
2.7909
2.79487
2.79937
2.80445
2.81017
2.81659
2.82376
2.83176
2.84065
2.85053
2.86149
2.87359
2.88696
2.90162
2.62726
2.62769
2.62851
2.62962
2.63111
2.63299
2.63527
2.63798
2.64116
2.64482
2.64901
2.65377
2.65916
2.66522
2.67202
2.67962
2.68809
2.6975
2.70794
2.71947
2.73217
2.74613
2.76136
2.4799
2.48033
2.48119
2.48234
2.48389
2.48584
2.48821
2.49103
2.49433
2.49815
2.50252
2.50749
2.51311
2.51944
2.52654
2.53448
2.54333
2.55316
2.56406
2.57608
2.58931
2.6038
2.61961
2.33216
2.33257
2.33346
2.33464
2.33624
2.33823
2.34067
2.34357
2.34695
2.35087
2.35537
2.36048
2.36628
2.3728
2.38012
2.38832
2.39745
2.40761
2.41887
2.4313
2.44497
2.45997
2.47633
2.18403
2.18442
2.18533
2.18652
2.18814
2.19016
2.19263
2.19557
2.199
2.20298
2.20755
2.21275
2.21864
2.22528
2.23274
2.2411
2.25043
2.26081
2.27234
2.28508
2.29913
2.31456
2.33144
2.03551
2.03588
2.03679
2.03798
2.0396
2.04162
2.04409
2.04703
2.05048
2.05447
2.05904
2.06426
2.07018
2.07687
2.08438
2.09281
2.10223
2.11274
2.12442
2.13737
2.15169
2.16748
2.18483
1.88664
1.88692
1.88784
1.88901
1.89062
1.89262
1.89506
1.89797
1.90137
1.90532
1.90986
1.91503
1.92091
1.92755
1.93503
1.94343
1.95284
1.96335
1.97507
1.98811
2.00257
2.0186
2.03631
1.73701
1.73749
1.7385
1.73964
1.74122
1.74316
1.74554
1.74838
1.7517
1.75556
1.76
1.76507
1.77082
1.77734
1.78469
1.79295
1.80224
1.81263
1.82425
1.83723
1.85169
1.86779
1.88571
1.5874
1.58775
1.58884
1.58989
1.5914
1.59326
1.59555
1.59827
1.60148
1.6052
1.60948
1.61437
1.61994
1.62625
1.63337
1.64141
1.65044
1.66059
1.67197
1.68472
1.699
1.71498
1.73288
1.43742
1.43769
1.43881
1.43975
1.44117
1.44291
1.44508
1.44767
1.45071
1.45424
1.45832
1.46297
1.46828
1.4743
1.48111
1.48881
1.49747
1.50724
1.51822
1.53057
1.54448
1.56012
1.57773
1.28714
1.28738
1.28838
1.28923
1.29055
1.29217
1.29419
1.2966
1.29944
1.30274
1.30655
1.31092
1.31589
1.32155
1.32796
1.3352
1.34339
1.35263
1.36306
1.37484
1.38815
1.40319
1.42024
1.13656
1.13677
1.13764
1.13839
1.1396
1.14106
1.14291
1.14512
1.14772
1.15075
1.15425
1.15826
1.16285
1.16806
1.17397
1.18068
1.18826
1.19684
1.20656
1.21757
1.23006
1.24425
1.26041
0.985673
0.985831
0.986588
0.987214
0.988297
0.989593
0.991247
0.993223
0.99556
0.998282
1.00143
1.00504
1.00916
1.01386
1.0192
1.02525
1.03212
1.03991
1.04875
1.0588
1.07025
1.0833
1.09825
0.834441
0.834507
0.83517
0.835669
0.836615
0.837731
0.839171
0.840894
0.842932
0.84531
0.848059
0.851218
0.85483
0.858946
0.863627
0.868943
0.874982
0.881846
0.889657
0.89856
0.908731
0.920378
0.933776
0.682855
0.682826
0.683411
0.683787
0.684584
0.68551
0.686717
0.688164
0.689877
0.691876
0.694189
0.696849
0.699891
0.703359
0.707304
0.71179
0.716892
0.722701
0.729323
0.736889
0.745559
0.755525
0.767036
0.53111
0.531012
0.531519
0.531784
0.532424
0.533153
0.534113
0.535264
0.536628
0.538222
0.540066
0.542186
0.544611
0.547374
0.550517
0.554094
0.558166
0.562808
0.568107
0.574173
0.581142
0.589177
0.598489
0.379395
0.379267
0.379674
0.379844
0.380319
0.380849
0.381553
0.382397
0.383399
0.384568
0.38592
0.387473
0.389246
0.391265
0.393562
0.396175
0.399151
0.402543
0.40642
0.410865
0.415982
0.421897
0.428773
0.227826
0.227663
0.227957
0.228034
0.228341
0.228676
0.229124
0.229662
0.230301
0.231045
0.231905
0.23289
0.234011
0.235284
0.236728
0.238367
0.240228
0.242345
0.24476
0.247524
0.250702
0.254371
0.258618
0.0754695
0.075231
0.0754004
0.0753681
0.0755033
0.0756345
0.0758164
0.0760363
0.0762964
0.0765981
0.0769431
0.0773336
0.0777722
0.0782633
0.0788119
0.0794248
0.0801108
0.08088
0.081745
0.0827219
0.0838293
0.0850963
0.0865601
230.456
237.991
252.81
243.801
269.405
257.706
244.734
235.5
236.596
235.361
238.276
248.039
161.254
168.839
180.256
194.949
88.2129
100.589
115.147
130.713
32.3484
41.8036
54.1231
66.6347
5.38479
5.92338
8.97835
14.8907
4.86625
4.88019
4.94109
5.06538
4.67102
4.67901
4.6867
4.70807
4.51363
4.5178
4.53432
4.56116
4.41203
4.41616
4.43134
4.45525
4.31823
4.31714
4.32554
4.34199
4.24057
4.23612
4.23715
4.24442
4.15755
4.15711
4.15911
4.16331
4.05885
4.06139
4.06555
4.07128
3.94967
3.95388
3.95923
3.96576
3.83328
3.83871
3.84504
3.8523
3.71133
3.71754
3.72448
3.73217
3.58514
3.59187
3.59919
3.60711
3.45553
3.46259
3.47014
3.47818
3.32313
3.33043
3.33813
3.34623
3.18841
3.19589
3.20372
3.21187
3.05174
3.05939
3.06734
3.07557
2.91338
2.92121
2.92933
2.93768
2.77349
2.78155
2.78987
2.7984
2.63217
2.64052
2.64916
2.65807
2.48934
2.49798
2.50693
2.51613
2.34491
2.35387
2.36315
2.3727
2.19874
2.20801
2.21764
2.22758
2.05061
2.06017
2.07013
2.08047
1.90029
1.91008
1.92033
1.93102
1.74757
1.7575
1.76792
1.77888
1.59231
1.60218
1.61264
1.62367
1.43444
1.44409
1.45435
1.46525
1.27396
1.28321
1.29307
1.30355
1.11086
1.11949
1.12872
1.13857
0.945135
0.95293
0.961283
0.970232
0.776851
0.783594
0.79083
0.798597
0.606459
0.611943
0.617836
0.624174
0.434691
0.438759
0.443139
0.447857
0.262316
0.264819
0.26753
0.27046
0.0877848
0.0886152
0.0894995
0.090438
233.842
281.703
283.168
283.533
283.601
283.706
283.803
283.839
283.831
283.8
283.749
283.658
283.497
283.222
282.404
280.393
277.62
276.993
289.514
243.4
277.608
282.951
283.601
283.444
283.534
283.651
283.665
283.624
283.565
283.482
283.341
283.06
282.65
281.581
278.862
274.365
267.505
292.954
267.29
276.211
285.342
283.725
283.174
283.339
283.559
283.517
283.409
283.337
283.27
283.111
282.804
282.35
281.326
279.169
276.738
271.028
289.245
223.17
266.814
288.508
285.518
283.263
283.157
283.624
283.398
283.178
283.129
283.154
282.98
282.676
282.349
281.69
280.926
280.282
279.467
295.349
161.577
222.086
297.206
293.862
283.202
282.188
283.859
283.394
283.056
282.976
283.002
282.893
282.681
282.313
281.688
282.416
283.195
286.027
290.27
91.6423
140.756
196.735
231.826
234.8
246.519
280.529
283.714
282.577
277.246
273.334
276.224
279.041
277.508
281.008
282.209
281.696
298.214
392.41
31.3661
59.6984
94.24
132.772
164.449
190.169
211.726
241.021
252.215
225.445
201.57
205.864
209.557
209.121
245.576
245.125
248.394
394.418
675.659
5.34079
11.9946
29.7361
49.5664
73.7087
97.0936
115.969
141.349
160.346
142.434
124.342
124.704
133.326
148.558
197.195
256.38
401.506
662.487
970.069
4.72801
4.7295
5.00699
6.83391
14.9485
26.4244
37.1294
45.7952
54.7499
58.5635
57.2496
56.7613
59.7998
69.918
109.202
220.346
457.322
765.85
1032.85
4.60321
4.57682
4.65273
4.65473
4.78477
4.95491
5.26227
6.57563
8.75228
10.912
11.5549
11.5421
11.9304
13.6178
23.7031
78.5713
310.876
657.42
871.939
4.49483
4.51518
4.56556
4.56005
4.65216
4.75923
4.84808
4.97615
5.14552
5.33293
5.52169
5.68292
5.89783
6.32226
8.81456
22.9677
93.399
454.468
638.22
4.37449
4.40524
4.44677
4.48904
4.55646
4.65044
4.75683
4.87975
5.01688
5.16047
5.32214
5.51339
5.80437
6.14099
7.53983
13.8016
33.2648
313.684
419.896
4.26303
4.28823
4.32252
4.36843
4.44182
4.53796
4.64324
4.75661
4.87668
5.00311
5.14481
5.33352
5.58691
5.97639
7.31414
11.2614
75.5093
228.972
281.399
4.17356
4.19489
4.2246
4.27719
4.34545
4.4269
4.51762
4.61687
4.72324
4.83285
4.95803
5.11056
5.25421
5.3601
6.69501
18.7359
115.923
189.017
211.535
4.08334
4.10827
4.14355
4.18662
4.24269
4.31029
4.38756
4.47356
4.56693
4.66401
4.76527
4.87617
4.88922
4.36843
3.53524
15.5801
101.55
160.506
166.475
3.9789
4.00401
4.0365
4.07727
4.12643
4.18456
4.25112
4.32483
4.40422
4.48587
4.56197
4.61796
4.53322
3.79036
1.66127
0.0989902
32.1961
104.179
106.842
3.86618
3.89094
3.92126
3.9578
4.00103
4.05147
4.10875
4.17122
4.23617
4.29839
4.3457
4.34846
4.22388
3.57437
2.68133
2.06245
1.80703
9.88723
41.5741
3.74646
3.77068
3.79918
3.8321
3.87003
3.9136
3.96238
4.01419
4.06492
4.10876
4.13243
4.10528
4.01812
3.666
3.40404
3.18197
-2.56245
-20.5817
19.5831
3.6215
3.64494
3.67164
3.7015
3.73496
3.77257
3.81373
3.85586
3.89451
3.92483
3.93841
3.91308
3.88862
3.80168
3.77398
4.10782
-0.108923
-4.26204
8.8556
3.49252
3.51515
3.5402
3.56745
3.59718
3.62968
3.66412
3.69778
3.727
3.74915
3.76171
3.75404
3.76283
3.76855
3.77529
3.93383
7.81664
10.6392
13.6131
3.36047
3.38238
3.40607
3.43122
3.45795
3.48623
3.51477
3.54092
3.56265
3.57985
3.59347
3.60174
3.62783
3.65863
3.69889
3.89247
12.323
13.5264
13.2059
3.22605
3.24743
3.27014
3.29374
3.31819
3.34314
3.36674
3.38637
3.40174
3.41468
3.42829
3.44708
3.49215
3.56477
3.60725
4.33262
14.8832
11.7244
12.7981
3.08978
3.11089
3.13308
3.15574
3.17865
3.20118
3.22106
3.23566
3.24564
3.25348
3.26388
3.28488
3.33584
3.41798
3.30276
3.11473
4.77559
6.21841
11.9843
2.95206
2.97346
2.99541
3.01771
3.0399
3.0611
3.07874
3.09026
3.0965
3.09814
3.10058
3.11874
3.18442
3.32616
3.4345
3.40386
3.50586
7.30527
8.52566
2.81293
2.83489
2.8573
2.87993
2.9023
2.92346
2.94075
2.95189
2.95647
2.95091
2.94179
2.95512
3.04277
3.27463
3.59302
3.34539
1.96765
6.33265
7.03508
2.67348
2.69567
2.71889
2.74246
2.76587
2.78851
2.8081
2.82279
2.8301
2.82193
2.80278
2.80289
2.87692
3.08334
3.2479
2.90739
2.48311
18.5883
24.7204
2.53194
2.55539
2.57997
2.60514
2.63081
2.65609
2.68069
2.70306
2.71899
2.71958
2.6987
2.67082
2.64139
2.57218
2.34822
2.37006
4.8765
23.6275
34.8165
2.38914
2.41392
2.44015
2.46721
2.49507
2.52427
2.5553
2.58839
2.61873
2.6336
2.62123
2.56694
2.42809
2.17116
1.87722
1.76143
2.33636
11.6941
35.6519
2.24478
2.271
2.29908
2.3282
2.35812
2.39081
2.42618
2.46595
2.50767
2.53919
2.54521
2.49374
2.33479
2.04869
1.77389
1.60507
1.87537
4.85571
31.277
2.09846
2.1262
2.15635
2.18792
2.22008
2.25562
2.29323
2.3284
2.3712
2.4163
2.449
2.43212
2.32932
2.11082
1.87699
1.76781
2.17355
5.35221
44.3899
1.94976
1.97894
2.01127
2.04605
2.08191
2.12084
2.16716
2.20854
2.24297
2.29156
2.35143
2.38882
2.36416
2.28069
2.20577
2.0534
3.38616
16.0579
72.8768
1.79822
1.8285
1.86281
1.90115
1.94255
1.9813
2.03933
2.10035
2.14535
2.18908
2.26089
2.36535
2.41287
2.46737
2.53738
2.17437
1.78073
48.3462
100.272
1.6432
1.67431
1.70971
1.74971
1.79345
1.83997
1.8964
1.97557
2.0294
2.05477
2.11809
2.25338
2.35236
2.45975
2.60663
3.27594
24.1958
48.0712
90.6079
1.48465
1.51584
1.55165
1.59263
1.63859
1.68971
1.74814
1.81958
1.87589
1.87407
1.88406
1.99815
2.15363
2.38992
3.26735
6.59717
9.48125
23.1666
54.2348
1.32228
1.35284
1.38826
1.42918
1.476
1.52879
1.58655
1.65007
1.70201
1.71851
1.74955
1.86468
2.01501
2.04641
3.17898
4.37881
5.32129
7.68553
17.8907
1.15624
1.18525
1.2192
1.25888
1.30484
1.35718
1.41413
1.47388
1.53107
1.57566
1.63455
1.76961
1.86533
2.01777
2.8065
3.51655
3.94265
4.25192
6.09206
0.986321
1.01295
1.04438
1.08145
1.12467
1.17472
1.22972
1.28726
1.34382
1.38929
1.44501
1.55167
1.19496
1.6925
2.68131
2.99449
3.34754
3.30042
4.2497
0.812589
0.835925
0.863685
0.896698
0.935387
0.980992
1.03176
1.08475
1.13714
1.1713
1.1783
1.10656
0.730073
1.55503
2.38516
2.59989
2.91462
2.87551
3.76095
0.635612
0.654814
0.677774
0.705253
0.737653
0.776284
0.819888
0.865048
0.914127
0.941922
0.916054
0.864705
0.623307
1.52679
2.11951
2.33149
2.62782
2.48663
3.82792
0.456381
0.470784
0.488046
0.50876
0.53328
0.562553
0.595567
0.628446
0.666706
0.67551
0.602821
0.579043
0.329455
1.29796
1.9647
2.12655
2.40023
2.26486
4.36095
0.275765
0.28471
0.295348
0.307972
0.322611
0.339436
0.356554
0.36925
0.379591
0.336467
0.139904
-0.313329
-1.06688
0.383084
1.48783
1.59643
1.83456
1.67074
2.11604
0.0920985
0.094755
0.0975824
0.100298
0.102155
0.101801
0.0951586
0.0755279
0.0320515
-0.102341
-0.411325
-1.04245
-2.11363
-0.846581
0.510662
0.505125
0.645054
0.847162
2.25799
)
;

boundaryField
{
    leftWall
    {
        type            calculated;
        value           nonuniform List<scalar> 
50
(
747.952
688.347
627.871
566.912
505.999
445.737
386.769
330.055
244.807
139.152
59.1939
6.6992
5.52994
5.38945
5.2384
5.09194
4.94746
4.80301
4.65908
4.51524
4.37135
4.22732
4.0831
3.93868
3.79405
3.64918
3.50408
3.35872
3.21309
3.06711
2.92085
2.77424
2.62726
2.4799
2.33216
2.18403
2.03551
1.88664
1.73701
1.5874
1.43742
1.28714
1.13656
0.985673
0.834441
0.682855
0.53111
0.379395
0.227826
0.0754695
)
;
    }
    rightWall
    {
        type            calculated;
        value           nonuniform List<scalar> 
50
(
289.271
289.273
289.343
289.471
289.658
289.982
290.515
290.745
289.514
292.954
289.245
295.349
290.27
392.41
675.659
970.069
1032.85
871.939
638.22
419.896
281.399
211.535
166.475
106.842
41.5741
19.5831
8.8556
13.6131
13.2059
12.7981
11.9843
8.52566
7.03508
24.7204
34.8165
35.6519
31.277
44.3899
72.8768
100.272
90.6079
54.2348
17.8907
6.09206
4.2497
3.76095
3.82792
4.36095
2.11604
2.25799
)
;
    }
    lowerWall
    {
        type            calculated;
        value           nonuniform List<scalar> 
62
(
777.381
777.042
782.43
791.51
798.799
802.347
802.804
802.997
805.294
810.678
819.296
831.078
845.976
863.834
884.566
907.961
933.084
957.479
975.199
986.258
965.159
961.561
1002.23
972.847
907.064
847.714
799.362
757.598
708.236
640.966
552.995
293.027
300.58
315.4
306.396
288.466
288.39
288.354
288.351
288.268
288.508
285.119
274.213
288.498
288.022
286.266
284.879
284.621
284.727
284.731
284.694
284.685
284.707
284.754
284.851
285.011
285.262
285.669
286.377
287.483
288.684
289.3
)
;
    }
    atmosphere
    {
        type            calculated;
        value           nonuniform List<scalar> 
46
(
-0.00133238
-0.00175489
-0.00163564
-0.00169803
-0.00165908
-0.00163588
-0.00159245
-0.00153838
-0.0014747
-0.00140335
-0.00132623
-0.0012457
-0.00116376
-0.00108334
-0.00100676
-0.000936112
-0.000874938
-0.000825838
-0.000792532
-0.000779854
-0.000794594
-0.000846271
-0.000953145
-0.00109437
-0.00121723
-0.00137751
-0.00158672
-0.00204237
-0.00311627
-0.00505185
-0.00858108
-0.0151099
-0.0272117
-0.0510448
-0.0943304
-0.178683
-0.396955
-0.721203
-0.641279
-0.0448377
0
0
0
0
0
0
)
;
    }
    defaultFaces
    {
        type            empty;
    }
}


// ************************************************************************* //
