/*--------------------------------*- C++ -*----------------------------------*\
  =========                 |
  \\      /  F ield         | OpenFOAM: The Open Source CFD Toolbox
   \\    /   O peration     | Website:  https://openfoam.org
    \\  /    A nd           | Version:  13
     \\/     M anipulation  |
\*---------------------------------------------------------------------------*/
FoamFile
{
    format      ascii;
    class       volScalarField;
    location    "0.45";
    object      p_rgh;
}
// * * * * * * * * * * * * * * * * * * * * * * * * * * * * * * * * * * * * * //

dimensions      [1 -1 -2 0 0 0 0];

internalField   nonuniform List<scalar> 
2268
(
777.381
777.042
782.43
791.51
798.799
802.347
802.804
802.997
805.294
810.678
819.296
831.078
845.976
863.834
884.566
907.961
933.084
957.479
975.199
986.258
965.159
961.561
1002.23
776.635
775.734
780.949
790.075
797.376
800.976
801.517
801.845
804.296
809.819
818.531
830.313
844.994
862.507
882.743
905.54
930.292
955.417
976.089
989.951
962.599
947.863
995.228
775.017
773.403
777.989
787.29
794.541
798.264
798.98
799.572
802.33
808.122
817.029
828.927
843.691
861.181
881.204
903.346
926.813
950.34
970.999
985.72
963.235
946.226
994.656
772.918
770.256
774.061
782.858
790.354
794.327
795.306
796.277
799.469
805.645
814.831
826.909
841.756
859.235
879.099
900.86
923.581
945.749
964.975
978.8
976.823
966.555
1005.11
770.863
766.6
769.178
777.1
784.959
789.331
790.636
792.068
795.804
802.451
811.975
824.271
839.241
856.749
876.533
898.079
920.455
942.087
960.75
974.743
980.607
984.211
1022.26
769.46
762.977
763.431
770.039
778.401
783.405
785.066
786.987
791.349
798.549
808.469
821.03
836.162
853.744
873.53
895.017
917.298
938.858
957.75
972.635
983.355
994.771
1031.7
769.351
759.691
757.106
761.947
770.853
776.718
778.821
781.222
786.19
793.933
804.253
817.11
832.468
850.216
870.105
891.661
914.05
935.805
955.239
970.894
983.127
995.559
1023.24
771.495
758.531
751.733
753.968
762.832
769.381
772.093
775.207
780.846
789.046
799.626
812.639
828.102
846.006
866.207
888.092
910.821
932.94
952.96
969.151
980.63
989.703
994.096
288.498
288.022
286.266
284.879
284.621
284.727
284.731
284.694
284.685
284.707
284.754
284.851
285.011
285.262
285.669
286.377
287.483
288.684
289.3
288.488
287.908
286.006
284.648
284.536
284.725
284.734
284.689
284.677
284.697
284.741
284.834
284.987
285.226
285.61
286.305
287.442
288.71
289.362
288.543
287.791
285.626
284.278
284.368
284.672
284.704
284.665
284.655
284.673
284.712
284.794
284.932
285.148
285.492
286.161
287.355
288.761
289.492
289.063
289.385
285.922
283.875
284.174
284.575
284.642
284.625
284.622
284.637
284.669
284.736
284.851
285.029
285.308
285.919
287.188
288.812
289.692
289.961
290.566
284.308
283.456
284.042
284.465
284.566
284.576
284.581
284.592
284.615
284.661
284.743
284.871
285.05
285.54
286.883
288.794
290.024
290.85
284.686
283.075
283.407
283.99
284.371
284.494
284.525
284.534
284.541
284.551
284.571
284.612
284.675
284.71
284.967
286.357
288.617
290.773
358.859
284.156
283.179
283.524
283.993
284.307
284.435
284.476
284.486
284.484
284.479
284.47
284.461
284.444
284.282
284.12
285.467
288.629
292.627
535.154
283.972
283.407
283.746
284.04
284.27
284.389
284.432
284.437
284.425
284.403
284.362
284.297
284.184
283.779
282.96
283.899
290.174
295.938
778.274
762.03
746.257
741.341
749.01
755.989
759.37
763.945
771.157
780.462
791.675
805.083
820.662
838.275
858.466
881.086
904.947
928.376
949.933
967.273
975.82
969.589
902.815
797.813
765.463
657.764
581.801
605.377
637.915
652.476
670.185
695.443
722.789
749.235
775.512
802.182
827.224
850.401
873.623
898.551
923.761
947.897
967.712
978.203
976.113
958.844
662.407
357.53
118.357
72.6809
108.655
130.669
132.161
144.572
172.605
211.138
257.688
316.399
395.699
503.703
627.347
776.64
885.473
917.152
951.271
977.548
995.166
1008.39
1019.23
19.3592
6.52523
6.46002
6.5634
6.5675
6.57844
6.58574
6.58768
6.59114
6.60384
6.63218
6.68499
6.76062
6.7947
34.0151
88.9328
195.195
419.309
790.04
994.624
1020.19
1044.89
1061.83
6.56419
6.48674
6.49817
6.54229
6.55282
6.55926
6.56414
6.56762
6.57229
6.58199
6.59951
6.62551
6.65215
6.63838
6.47444
6.40569
6.77137
20.209
78.5984
211.38
483.499
951.074
1107.88
6.54889
6.53672
6.52746
6.53302
6.53714
6.5414
6.54514
6.54826
6.5522
6.55825
6.56607
6.57079
6.56156
6.50354
6.40713
6.45614
6.60166
6.68572
6.77459
6.94397
19.1284
117.398
328.003
6.52304
6.51439
6.51316
6.51698
6.52002
6.52286
6.52546
6.52777
6.53029
6.5336
6.53657
6.53544
6.52763
6.50552
6.43717
6.61014
6.78406
6.87333
7.05077
7.26752
6.99017
6.72838
6.73459
6.50177
6.50035
6.50073
6.50119
6.50268
6.50437
6.50598
6.5073
6.5084
6.50941
6.50967
6.50634
6.49758
6.47978
6.44852
6.47573
6.45161
6.61397
6.52763
6.46377
6.52952
6.67037
6.42257
6.48249
6.48293
6.4836
6.48386
6.48463
6.48558
6.4865
6.48709
6.48721
6.4867
6.48523
6.48208
6.47625
6.4663
6.45286
6.4378
6.43845
6.43905
6.43588
6.4177
6.38047
6.40642
6.34322
6.46323
6.46426
6.46525
6.46557
6.46601
6.46656
6.46703
6.46719
6.46683
6.46578
6.46386
6.46086
6.45643
6.45087
6.44474
6.43395
6.42947
6.42465
6.4138
6.39659
6.51872
6.74488
6.61624
6.44449
6.44558
6.44648
6.4468
6.44711
6.44744
6.44768
6.44766
6.4472
6.44617
6.44443
6.44191
6.4385
6.43407
6.4289
6.42318
6.41772
6.41103
6.39783
6.37353
6.40561
6.70023
7.01597
6.42585
6.42675
6.42749
6.42782
6.42809
6.42833
6.42848
6.42844
6.42808
6.4273
6.42601
6.42415
6.42168
6.41853
6.41491
6.41057
6.40531
6.39828
6.38622
6.36598
6.33265
6.28517
6.26311
6.40715
6.40783
6.40842
6.40875
6.40902
6.40927
6.40944
6.40949
6.40932
6.40887
6.40809
6.40691
6.4053
6.40323
6.40068
6.3974
6.39305
6.38687
6.37723
6.36251
6.3407
6.31306
6.28835
6.38831
6.38882
6.38928
6.38962
6.38993
6.39025
6.39053
6.39074
6.39082
6.39074
6.39045
6.38992
6.3891
6.38797
6.38643
6.38431
6.3813
6.37686
6.37022
6.36072
6.34808
6.33396
6.32245
6.36929
6.36967
6.37007
6.37044
6.37083
6.37125
6.37169
6.37211
6.37249
6.3728
6.37301
6.37309
6.37302
6.37277
6.37225
6.37134
6.36984
6.36745
6.36385
6.35881
6.35258
6.34669
6.34357
6.35006
6.35038
6.35076
6.35118
6.35167
6.35223
6.35286
6.35353
6.35422
6.35494
6.35564
6.35633
6.35699
6.35758
6.35807
6.35837
6.35838
6.35796
6.35703
6.35565
6.35423
6.35392
6.35628
6.33062
6.33091
6.33131
6.3318
6.3324
6.33312
6.33396
6.33489
6.33592
6.33704
6.33825
6.33953
6.34089
6.34231
6.34377
6.34525
6.34671
6.34812
6.34954
6.35111
6.35327
6.35685
6.36286
6.31096
6.31124
6.31168
6.31225
6.31298
6.31388
6.31493
6.31613
6.3175
6.31903
6.32071
6.32257
6.3246
6.32681
6.3292
6.33178
6.33457
6.33761
6.34098
6.3449
6.34972
6.35607
6.36463
6.29105
6.29134
6.29184
6.2925
6.29336
6.29443
6.2957
6.29718
6.29887
6.30079
6.30294
6.30534
6.30801
6.31096
6.31422
6.31782
6.3218
6.32624
6.33125
6.33704
6.34388
6.35226
6.36263
6.27089
6.2712
6.27175
6.27251
6.2735
6.27473
6.27621
6.27795
6.27996
6.28225
6.28484
6.28776
6.29102
6.29466
6.29871
6.30322
6.30826
6.3139
6.32027
6.32754
6.33595
6.34583
6.35751
6.25045
6.25078
6.25139
6.25223
6.25335
6.25474
6.25642
6.2584
6.2607
6.26334
6.26634
6.26972
6.27353
6.27779
6.28256
6.28789
6.29384
6.30051
6.30801
6.31648
6.3261
6.33715
6.34981
6.22966
6.23004
6.23072
6.23165
6.23288
6.23442
6.23628
6.23849
6.24105
6.244
6.24737
6.25117
6.25547
6.26029
6.26569
6.27173
6.27847
6.28601
6.29445
6.3039
6.31451
6.32646
6.33989
6.2086
6.20899
6.20973
6.21072
6.21205
6.21372
6.21575
6.21815
6.22096
6.22418
6.22787
6.23205
6.23677
6.24208
6.24803
6.25468
6.2621
6.27038
6.2796
6.28987
6.30129
6.314
6.32807
6.18718
6.1876
6.18837
6.18943
6.19085
6.19263
6.1948
6.19738
6.20038
6.20385
6.20781
6.21231
6.2174
6.22312
6.22953
6.2367
6.2447
6.25359
6.26347
6.27443
6.28653
6.2999
6.31456
6.16539
6.16583
6.16665
6.16775
6.16925
6.17112
6.17341
6.17612
6.17929
6.18295
6.18714
6.19191
6.19729
6.20336
6.21016
6.21775
6.22622
6.23564
6.24607
6.25761
6.27031
6.28426
6.2995
6.14323
6.14367
6.14452
6.14567
6.14722
6.14917
6.15154
6.15436
6.15766
6.16148
6.16585
6.17082
6.17644
6.18277
6.18987
6.19781
6.20666
6.21649
6.22739
6.23941
6.25264
6.26713
6.28294
6.12069
6.1211
6.12199
6.12317
6.12476
6.12676
6.12919
6.13209
6.13548
6.1394
6.14389
6.14901
6.1548
6.16133
6.16865
6.17684
6.18598
6.19614
6.20739
6.21982
6.2335
6.24849
6.26485
6.09775
6.09814
6.09905
6.10024
6.10186
6.10388
6.10635
6.10929
6.11272
6.1167
6.12127
6.12647
6.13236
6.139
6.14646
6.15482
6.16415
6.17453
6.18606
6.1988
6.21285
6.22828
6.24516
6.07442
6.07479
6.0757
6.07689
6.07851
6.08054
6.08301
6.08595
6.08939
6.09338
6.09796
6.10318
6.1091
6.11578
6.1233
6.13172
6.14114
6.15165
6.16333
6.17629
6.1906
6.20639
6.22375
6.05075
6.05103
6.05195
6.05312
6.05473
6.05673
6.05917
6.06207
6.06548
6.06943
6.07397
6.07914
6.08502
6.09166
6.09914
6.10753
6.11694
6.12746
6.13918
6.15221
6.16668
6.1827
6.20042
6.02631
6.0268
6.0278
6.02894
6.03052
6.03246
6.03484
6.03768
6.04101
6.04487
6.0493
6.05437
6.06013
6.06664
6.07399
6.08226
6.09154
6.10193
6.11356
6.12653
6.141
6.1571
6.17501
6.0019
6.00224
6.00334
6.00439
6.00589
6.00775
6.01004
6.01277
6.01597
6.0197
6.02398
6.02887
6.03444
6.04074
6.04787
6.0559
6.06494
6.07508
6.08646
6.09921
6.1135
6.12948
6.14738
5.97712
5.97738
5.9785
5.97944
5.98086
5.98261
5.98477
5.98736
5.9904
5.99394
5.99801
6.00267
6.00797
6.01399
6.02081
6.0285
6.03717
6.04693
6.05791
6.07027
6.08417
6.09981
6.11742
5.95203
5.95226
5.95326
5.95412
5.95544
5.95705
5.95907
5.96149
5.96433
5.96763
5.97144
5.9758
5.98078
5.98643
5.99284
6.00009
6.00828
6.01752
6.02795
6.03973
6.05304
6.06808
6.08513
5.92664
5.92685
5.92772
5.92847
5.92968
5.93114
5.93299
5.9352
5.9378
5.94083
5.94433
5.94835
5.95293
5.95814
5.96406
5.97076
5.97834
5.98692
5.99664
6.00765
6.02014
6.03433
6.0505
5.90095
5.90111
5.90186
5.90249
5.90357
5.90487
5.90652
5.9085
5.91084
5.91356
5.9167
5.92031
5.92444
5.92914
5.93447
5.94053
5.94739
5.95518
5.96403
5.97408
5.98552
5.99858
6.01353
5.87491
5.87498
5.87564
5.87614
5.87709
5.8782
5.87964
5.88136
5.8834
5.88578
5.88853
5.89169
5.8953
5.89942
5.9041
5.90941
5.91545
5.92232
5.93013
5.93903
5.9492
5.96085
5.97425
5.84852
5.84849
5.84908
5.84945
5.85025
5.85117
5.85238
5.85383
5.85554
5.85754
5.85985
5.86251
5.86556
5.86902
5.87297
5.87745
5.88256
5.88837
5.89499
5.90255
5.91122
5.92119
5.9327
5.82197
5.82187
5.82238
5.82264
5.82328
5.82401
5.82497
5.82612
5.82749
5.82908
5.83093
5.83305
5.83547
5.83823
5.84138
5.84495
5.84903
5.85367
5.85897
5.86503
5.872
5.88004
5.88935
5.79545
5.79532
5.79573
5.7959
5.79637
5.7969
5.79761
5.79845
5.79945
5.80062
5.80197
5.80353
5.8053
5.80732
5.80962
5.81223
5.8152
5.8186
5.82247
5.82692
5.83204
5.83795
5.84483
5.76907
5.76891
5.76921
5.76928
5.76959
5.76992
5.77037
5.77091
5.77155
5.77229
5.77315
5.77414
5.77526
5.77653
5.77798
5.77962
5.78148
5.78359
5.78601
5.78877
5.79195
5.79562
5.79987
5.74191
5.74167
5.74184
5.74181
5.74195
5.74208
5.74226
5.74248
5.74274
5.74304
5.74339
5.74378
5.74421
5.74471
5.74525
5.74587
5.74655
5.74732
5.74819
5.74916
5.75027
5.75154
5.753
763.7
771.389
786.221
777.249
927.816
916.156
903.331
894.15
1020.44
1019.2
1022.07
1031.88
1070.29
1077.87
1089.29
1103.99
1122.44
1134.82
1149.38
1164.94
551.897
779.459
1150.79
1226.04
10.0199
33.1028
108.261
220.384
6.47347
6.43824
6.79371
6.81741
6.33469
6.34513
6.3702
6.43135
6.4894
6.38098
6.40598
6.44529
7.0089
7.01303
7.02821
7.05076
6.64478
6.90142
7.05652
6.98181
6.27637
6.27192
6.27295
6.3624
6.31855
6.31811
6.3201
6.32431
6.34504
6.34758
6.35174
6.35747
6.36106
6.36527
6.37062
6.37715
6.36986
6.37529
6.38162
6.38888
6.37311
6.37932
6.38626
6.39395
6.37211
6.37884
6.38616
6.39408
6.36769
6.37476
6.38231
6.39035
6.36049
6.36778
6.37549
6.38358
6.35096
6.35844
6.36627
6.37442
6.33949
6.34714
6.35509
6.36332
6.32632
6.33416
6.34227
6.35062
6.31163
6.31969
6.32801
6.33653
6.2955
6.30385
6.31249
6.3214
6.27786
6.28651
6.29545
6.30465
6.25863
6.26759
6.27687
6.28642
6.23765
6.24693
6.25656
6.26649
6.21472
6.22428
6.23424
6.24458
6.18959
6.19938
6.20963
6.22032
6.16207
6.172
6.18242
6.19337
6.132
6.14187
6.15233
6.16336
6.09933
6.10898
6.11923
6.13014
6.06404
6.07329
6.08315
6.09364
6.02614
6.03477
6.04399
6.05385
5.98561
5.9934
6.00175
6.0107
5.94252
5.94926
5.95649
5.96426
5.89732
5.9028
5.9087
5.91503
5.85074
5.85481
5.85919
5.86391
5.80356
5.80607
5.80878
5.81171
5.75423
5.75506
5.75594
5.75688
690.666
284.512
283.716
284.069
284.134
284.24
284.336
284.373
284.365
284.334
284.283
284.191
284.03
283.756
282.941
280.98
280.04
288.726
299.167
902.052
560.993
283.997
284.262
284.103
284.193
284.311
284.326
284.283
284.223
284.14
283.999
283.719
283.31
282.251
279.61
277.016
279.844
322.231
1051.14
959.36
312.234
284.517
283.959
284.123
284.345
284.303
284.194
284.121
284.054
283.895
283.588
283.134
282.114
280.005
277.982
274.152
663.756
1132.21
1175.85
657.95
286.795
284.172
284.066
284.534
284.307
284.087
284.038
284.063
283.889
283.586
283.258
282.599
281.837
281.214
280.47
1025.16
1195.81
1256.32
1265.87
435.328
285.999
283.222
284.937
284.428
284.091
284.011
284.036
283.927
283.715
283.356
282.852
283.475
284.283
288.19
1186.53
1251.06
1300.18
1356.01
1227.41
1065.2
869.543
493.182
284.873
283.736
377.95
451.834
400.01
335.409
366.956
282.401
283.424
334.464
583.035
1448.36
594.192
1290.67
1376.3
1407.55
1429.64
1441.23
1402.05
1142.21
987.795
1108.1
1283.88
1294.07
1248.35
1248.61
981.459
1070.64
1272.8
1591.34
1888.75
14.8977
196.805
592.704
1050.34
1403.28
1445.45
1452.89
1475.4
1480.23
1439.68
1411.53
1415.53
1427.28
1451.06
1516.76
1585.86
1732.71
1993.8
2301.38
6.49047
6.54687
7.42172
75.7128
266.505
548.936
828.898
1012.39
1149.38
1233.47
1243.17
1233.1
1227.39
1274.46
1504.99
1667.7
1906.61
2215.28
2479.43
6.49396
6.5236
6.63421
7.09442
8.10883
8.0808
18.0775
48.4951
102.475
158.241
171.881
167.873
169.804
190.001
284.72
763.197
1787.64
2224.91
2383.53
6.88693
6.83282
7.24216
7.55287
7.4168
7.23427
6.90201
6.82934
7.07419
7.32547
7.50409
7.80512
8.3802
9.50484
15.4671
43.6432
1049.61
2117.48
2274.93
6.9113
7.16568
7.35329
7.34933
6.91742
6.63457
6.67716
6.79157
6.92893
7.07567
7.24062
7.4423
7.92938
8.40933
10.7642
22.5987
1103.62
2073.19
2002.27
6.4713
6.53653
6.54547
6.45153
6.47772
6.57387
6.67907
6.79253
6.91289
7.0399
7.18354
7.37616
7.65251
8.41256
11.6441
198.034
1564.86
2103.6
1730.53
6.33456
6.35589
6.38564
6.4382
6.50646
6.5879
6.67862
6.77797
6.88461
6.99428
7.12003
7.28308
7.61096
9.23926
39.9105
1094.37
2102.29
2179.03
1748.49
6.36953
6.39446
6.42974
6.47281
6.52888
6.59648
6.67375
6.75976
6.85314
6.9517
7.05558
7.18132
7.37003
8.50673
25.1249
839.381
2068.66
2265.81
1792.94
6.39029
6.41539
6.44789
6.48866
6.53781
6.59595
6.6625
6.73622
6.81562
6.89982
6.9895
7.06701
7.39757
15.5155
36.4991
24.2032
1416.07
2324.77
2225.53
6.40276
6.42752
6.45784
6.49438
6.53762
6.58805
6.64534
6.70781
6.77275
6.83576
6.89974
6.91775
7.22509
10.9126
7.10757
10.0362
1269.74
2030.36
2243.51
6.40824
6.43246
6.46096
6.49388
6.53181
6.57539
6.62416
6.67597
6.7267
6.77055
6.79887
6.79349
6.76831
6.41926
6.12313
267.626
1486.27
1046.31
1614.73
6.40847
6.43191
6.4586
6.48847
6.52193
6.55955
6.60077
6.64292
6.68154
6.71183
6.72598
6.72685
6.69877
6.62637
6.61192
516.931
1543.66
178.957
252.327
6.40469
6.42731
6.45236
6.47961
6.50934
6.54185
6.57711
6.61342
6.64238
6.66156
6.67408
6.68406
6.69345
6.70328
6.75118
586.297
1385.99
197.949
195.261
6.39783
6.41974
6.44342
6.46858
6.49531
6.52359
6.55313
6.58339
6.60514
6.61887
6.63099
6.64271
6.69247
6.73582
8.03553
402.853
1442.83
204.586
200.776
6.3886
6.40999
6.43269
6.4563
6.48074
6.50569
6.5293
6.55009
6.56964
6.58231
6.59102
6.612
6.68648
6.76761
7.31637
201.877
1216.73
473.428
207.932
6.37753
6.39864
6.42083
6.44348
6.46641
6.48901
6.50902
6.52395
6.53877
6.54751
6.55472
6.57826
6.65129
6.86391
10.1861
9.42387
289.262
1021.15
214.833
6.365
6.3864
6.40835
6.43065
6.45284
6.47444
6.49523
6.50751
6.51414
6.51762
6.52031
6.53763
6.61153
6.99479
8.98842
9.12477
72.7118
1115.54
219.101
6.35106
6.37302
6.39544
6.41807
6.44044
6.46195
6.48365
6.49555
6.50014
6.49444
6.48328
6.49669
6.58604
6.98504
7.61119
14.1527
199.579
1157.15
815.084
6.33681
6.359
6.38222
6.40579
6.4292
6.45185
6.47157
6.49066
6.49913
6.48858
6.4691
6.47033
6.55485
6.83865
7.61274
12.3016
432.316
1211.53
1153.36
6.32046
6.34391
6.3685
6.39367
6.41933
6.44462
6.46924
6.49184
6.51064
6.51143
6.48968
6.46267
6.44306
6.45581
6.99357
9.36336
312.277
1221.06
1195.44
6.30286
6.32764
6.35388
6.38093
6.40879
6.43827
6.46998
6.50266
6.53379
6.5504
6.53675
6.48413
6.37658
6.56845
6.93046
6.15738
8.52533
610.521
1216.16
6.28369
6.30991
6.338
6.36711
6.39704
6.43018
6.46633
6.5061
6.54782
6.57983
6.5857
6.53551
6.41932
6.25043
5.91138
5.72118
7.7143
286.703
1227.19
6.26257
6.29031
6.32046
6.35203
6.3842
6.41983
6.45743
6.49359
6.53661
6.58161
6.61443
6.5973
6.50543
6.28711
6.05838
5.95272
6.48609
247.285
1090.8
6.23907
6.26824
6.30057
6.33536
6.37122
6.41021
6.45651
6.498
6.53291
6.58111
6.64103
6.67838
6.67149
6.58541
6.5156
6.50083
8.18043
595.408
1154.18
6.21272
6.243
6.27731
6.31565
6.35707
6.39585
6.45389
6.51491
6.55993
6.60367
6.67549
6.77997
6.82765
6.88441
6.96936
7.08368
681.58
1161.21
1214.3
6.18289
6.214
6.24941
6.2894
6.33315
6.37968
6.4362
6.51532
6.5712
6.70071
6.77105
7.05973
6.92905
7.01186
26.8968
284.984
1060.03
1193.69
1236.23
6.14954
6.18072
6.21654
6.25751
6.30348
6.3546
6.4135
6.48497
6.54128
6.53921
7.82469
9.12197
8.57382
7.2029
107.086
172.988
95.8453
825.496
1231.45
6.11236
6.14292
6.17834
6.21926
6.26608
6.31887
6.37715
6.4409
6.49267
6.50863
6.53971
6.66402
9.12526
31.4543
67.046
42.184
15.5469
36.1684
1214.54
6.07151
6.10053
6.13448
6.17416
6.22012
6.27246
6.32948
6.38964
6.44666
6.49093
6.54986
6.71124
7.19515
50.1207
55.6927
18.1227
11.9062
12.4444
1106.29
6.02679
6.05342
6.08485
6.12192
6.16514
6.21519
6.27019
6.32773
6.38429
6.42976
6.48607
7.30458
39.3956
84.5246
53.0297
12.2276
10.7706
10.5651
910.556
5.97825
6.00159
6.02935
6.06236
6.10105
6.14666
6.19742
6.25041
6.3028
6.33696
6.34396
53.8852
91.0414
90.9979
24.907
10.209
10.2324
10.0965
978.387
5.92647
5.94567
5.96863
5.99611
6.02851
6.06714
6.11075
6.15591
6.20499
6.23278
6.20691
68.1742
93.1496
78.8992
12.1271
9.83627
10.0221
9.84897
1012.9
5.87243
5.88684
5.9041
5.92481
5.94933
5.97861
6.01162
6.0445
6.08276
6.09156
6.01887
18.9328
98.8082
88.3017
14.737
9.75494
9.93159
9.81013
1014.46
5.81701
5.82596
5.8366
5.84922
5.86386
5.88068
5.8978
5.9105
5.92084
5.87771
5.68115
6.67549
102.824
107.626
49.4612
9.58907
9.57498
9.38194
466.316
5.75854
5.7612
5.76403
5.76674
5.7686
5.76824
5.7616
5.74197
5.69849
5.5641
5.25512
5.4164
86.2421
108.82
70.4354
9.33599
8.59675
8.75862
262.687
)
;

boundaryField
{
    leftWall
    {
        type            fixedFluxPressure;
        gradient        uniform 0;
        value           nonuniform List<scalar> 
50
(
777.381
776.635
775.017
772.918
770.863
769.46
769.351
771.495
778.274
797.813
662.407
19.3592
6.56419
6.54889
6.52304
6.50177
6.48249
6.46323
6.44449
6.42585
6.40715
6.38831
6.36929
6.35006
6.33062
6.31096
6.29105
6.27089
6.25045
6.22966
6.2086
6.18718
6.16539
6.14323
6.12069
6.09775
6.07442
6.05075
6.02631
6.0019
5.97712
5.95203
5.92664
5.90095
5.87491
5.84852
5.82197
5.79545
5.76907
5.74191
)
;
    }
    rightWall
    {
        type            fixedFluxPressure;
        gradient        uniform 0;
        value           nonuniform List<scalar> 
50
(
289.3
289.362
289.492
289.692
290.024
290.773
292.627
295.938
299.167
322.231
663.756
1025.16
1186.53
1448.36
1888.75
2301.38
2479.43
2383.53
2274.93
2002.27
1730.53
1748.49
1792.94
2225.53
2243.51
1614.73
252.327
195.261
200.776
207.932
214.833
219.101
815.084
1153.36
1195.44
1216.16
1227.19
1090.8
1154.18
1214.3
1236.23
1231.45
1214.54
1106.29
910.556
978.387
1012.9
1014.46
466.316
262.687
)
;
    }
    lowerWall
    {
        type            fixedFluxPressure;
        gradient        uniform 0;
        value           nonuniform List<scalar> 
62
(
777.381
777.042
782.43
791.51
798.799
802.347
802.804
802.997
805.294
810.678
819.296
831.078
845.976
863.834
884.566
907.961
933.084
957.479
975.199
986.258
965.159
961.561
1002.23
1002.23
995.228
994.656
1005.11
1022.26
1031.7
1023.24
994.096
763.7
771.389
786.221
777.249
288.498
288.488
288.543
289.063
289.961
290.85
358.859
535.154
288.498
288.022
286.266
284.879
284.621
284.727
284.731
284.694
284.685
284.707
284.754
284.851
285.011
285.262
285.669
286.377
287.483
288.684
289.3
)
;
    }
    atmosphere
    {
        type            prghTotalPressure;
        rho             rho;
        psi             none;
        gamma           1;
        p0              uniform 0;
        value           nonuniform List<scalar> 
46
(
5.72771
5.72729
5.7274
5.72734
5.72738
5.7274
5.72745
5.7275
5.72757
5.72764
5.72771
5.72779
5.72788
5.72796
5.72803
5.7281
5.72817
5.72821
5.72825
5.72826
5.72825
5.72819
5.72809
5.72795
5.72782
5.72766
5.72745
5.727
5.72592
5.72399
5.72046
5.71393
5.70183
5.678
5.63471
5.55036
5.33208
5.00784
5.08776
5.6842
110.878
70.6972
8.92842
8.03954
7.99885
263.306
)
;
        rho             rho;
    }
    defaultFaces
    {
        type            empty;
    }
}


// ************************************************************************* //
