/*--------------------------------*- C++ -*----------------------------------*\
  =========                 |
  \\      /  F ield         | OpenFOAM: The Open Source CFD Toolbox
   \\    /   O peration     | Website:  https://openfoam.org
    \\  /    A nd           | Version:  13
     \\/     M anipulation  |
\*---------------------------------------------------------------------------*/
FoamFile
{
    format      ascii;
    class       surfaceScalarField;
    location    "0.45";
    object      phi;
}
// * * * * * * * * * * * * * * * * * * * * * * * * * * * * * * * * * * * * * //

dimensions      [0 3 -1 0 0 0 0];

internalField   nonuniform List<scalar> 
4432
(
-3.81175e-06
3.81175e-06
-4.29202e-06
4.80276e-07
-8.92408e-07
-3.39961e-06
4.64837e-06
-5.54077e-06
1.09191e-05
-6.27074e-06
1.67223e-05
-5.8032e-06
2.14297e-05
-4.7074e-06
2.49147e-05
-3.48499e-06
2.73154e-05
-2.40067e-06
2.88514e-05
-1.536e-06
2.97225e-05
-8.71073e-07
3.00534e-05
-3.30944e-07
2.98241e-05
2.29346e-07
2.88423e-05
9.81755e-07
2.6781e-05
2.06126e-06
2.30955e-05
3.68551e-06
1.71208e-05
5.97473e-06
8.74235e-06
8.37844e-06
6.68933e-08
8.67546e-06
-7.59927e-06
7.66616e-06
-1.6159e-05
8.5597e-06
-1.59643e-05
-1.94698e-07
-1.59643e-05
-3.96343e-06
7.77518e-06
-3.99147e-06
5.08319e-07
-4.75688e-07
-6.91539e-06
5.04931e-06
-1.10658e-05
1.12665e-05
-1.24879e-05
1.69907e-05
-1.15274e-05
2.16155e-05
-9.33219e-06
2.50345e-05
-6.90404e-06
2.74061e-05
-4.77223e-06
2.89575e-05
-3.08744e-06
2.98885e-05
-1.80204e-06
3.03481e-05
-7.90588e-07
3.04759e-05
1.01561e-07
3.04194e-05
1.03825e-06
3.01904e-05
2.29023e-06
2.96124e-05
4.26359e-06
2.7967e-05
7.62014e-06
2.35537e-05
1.27917e-05
1.43148e-05
1.79144e-05
1.15374e-06
2.08272e-05
-9.2178e-06
1.89312e-05
-9.08076e-06
-3.31767e-07
-2.5045e-05
-3.52763e-06
1.13028e-05
-3.37522e-06
3.5592e-07
1.79029e-07
-1.04696e-05
5.64493e-06
-1.65317e-05
1.17018e-05
-1.85448e-05
1.72176e-05
-1.70432e-05
2.16208e-05
-1.37354e-05
2.48518e-05
-1.0135e-05
2.71069e-05
-7.02738e-06
2.86249e-05
-4.60543e-06
2.95949e-05
-2.77202e-06
3.01347e-05
-1.33035e-06
3.02953e-05
-5.90334e-08
3.00802e-05
1.25329e-06
2.95215e-05
2.84894e-06
2.87715e-05
5.01363e-06
2.8164e-05
8.22765e-06
2.74667e-05
1.3489e-05
2.44026e-05
2.09785e-05
1.66922e-05
2.85376e-05
6.91249e-06
2.8711e-05
1.55226e-06
5.02844e-06
-2.34928e-05
-2.89206e-06
1.41949e-05
-2.46491e-06
-7.12268e-08
1.01412e-06
-1.39487e-05
6.3331e-06
-2.18506e-05
1.21632e-05
-2.43749e-05
1.74212e-05
-2.23012e-05
2.15478e-05
-1.7862e-05
2.45453e-05
-1.31325e-05
2.66662e-05
-9.14833e-06
2.81636e-05
-6.10283e-06
2.92078e-05
-3.8162e-06
2.98876e-05
-2.01013e-06
3.02292e-05
-4.00636e-07
3.02089e-05
1.27365e-06
2.97978e-05
3.26e-06
2.90113e-05
5.80007e-06
2.80804e-05
9.15864e-06
2.77261e-05
1.38432e-05
2.7988e-05
2.07166e-05
2.67514e-05
2.97741e-05
2.18906e-05
3.35718e-05
1.15718e-05
1.53472e-05
-1.19209e-05
-2.0742e-06
1.62691e-05
-1.22566e-06
-9.19761e-07
2.04437e-06
-1.72187e-05
6.99356e-06
-2.67998e-05
1.25223e-05
-2.99036e-05
1.75082e-05
-2.7287e-05
2.13546e-05
-2.17085e-05
2.41228e-05
-1.59007e-05
2.61278e-05
-1.11534e-05
2.76355e-05
-7.61048e-06
2.87918e-05
-4.97257e-06
2.96507e-05
-2.86902e-06
3.02067e-05
-9.56629e-07
3.04222e-05
1.05814e-06
3.02736e-05
3.40868e-06
2.97663e-05
6.30733e-06
2.89693e-05
9.95561e-06
2.82739e-05
1.45385e-05
2.86918e-05
2.02987e-05
3.01618e-05
2.83041e-05
2.87607e-05
3.49729e-05
1.81786e-05
2.59293e-05
6.25769e-06
-1.01676e-06
1.72858e-05
4.15183e-07
-2.3517e-06
3.41774e-06
-2.02213e-05
7.88188e-06
-3.1264e-05
1.29591e-05
-3.49809e-05
1.75503e-05
-3.18783e-05
2.10558e-05
-2.5214e-05
2.35966e-05
-1.84414e-05
2.55291e-05
-1.30859e-05
2.71061e-05
-9.1875e-06
2.84316e-05
-6.29809e-06
2.95154e-05
-3.95283e-06
3.03169e-05
-1.75807e-06
3.07699e-05
6.051e-07
3.08524e-05
3.32616e-06
3.0594e-05
6.5658e-06
3.00891e-05
1.04605e-05
2.94514e-05
1.51762e-05
2.92113e-05
2.05389e-05
3.0402e-05
2.71134e-05
3.04253e-05
3.49496e-05
2.13021e-05
3.50525e-05
2.75598e-05
2.91377e-07
1.69945e-05
2.59238e-06
-4.6527e-06
5.81847e-06
-2.34473e-05
9.85842e-06
-3.53039e-05
1.41534e-05
-3.92758e-05
1.79686e-05
-3.56935e-05
2.09022e-05
-2.81476e-05
2.31232e-05
-2.06624e-05
2.4965e-05
-1.49277e-05
2.66245e-05
-1.0847e-05
2.81432e-05
-7.81676e-06
2.94799e-05
-5.28959e-06
3.05557e-05
-2.8338e-06
3.1288e-05
-1.27192e-07
3.16056e-05
3.0085e-06
3.15487e-05
6.62277e-06
3.12304e-05
1.07787e-05
3.07837e-05
1.56229e-05
3.02798e-05
2.10427e-05
3.04666e-05
2.69266e-05
3.03896e-05
3.50267e-05
2.36448e-05
4.17973e-05
5.12046e-05
2.28047e-06
1.4714e-05
5.86208e-06
-8.23431e-06
1.0055e-05
-2.76403e-05
1.3699e-05
-3.89479e-05
1.66633e-05
-4.22401e-05
1.91718e-05
-3.8202e-05
2.12859e-05
-3.02617e-05
2.31189e-05
-2.24954e-05
2.48393e-05
-1.6648e-05
2.65265e-05
-1.25342e-05
2.81532e-05
-9.44351e-06
2.96449e-05
-6.78123e-06
3.09039e-05
-4.09286e-06
3.18338e-05
-1.05709e-06
3.23893e-05
2.45303e-06
3.25886e-05
6.42342e-06
3.24773e-05
1.089e-05
3.2187e-05
1.59133e-05
3.17711e-05
2.14586e-05
3.14055e-05
2.72922e-05
3.07349e-05
3.56973e-05
2.51216e-05
4.74106e-05
7.63262e-05
4.5184e-05
-4.5184e-05
0.000128065
-8.28798e-05
0.000155883
-2.78183e-05
0.000118365
3.75176e-05
6.95899e-05
4.87757e-05
4.41253e-05
2.54648e-05
3.25585e-05
1.15669e-05
2.22555e-05
1.03026e-05
1.12064e-05
1.1049e-05
-2.40042e-07
1.14468e-05
-1.25317e-05
1.22914e-05
-2.62353e-05
1.37034e-05
-4.20061e-05
1.57707e-05
-6.042e-05
1.84139e-05
-7.98465e-05
1.94261e-05
-9.13624e-05
1.15155e-05
-8.08618e-05
-1.05005e-05
-4.20286e-05
-3.88333e-05
-4.20288e-05
4.13159e-05
-8.65008e-05
0.000108743
-0.000150305
0.000148144
-6.72205e-05
0.00014118
4.44822e-05
0.000104429
8.55275e-05
6.71296e-05
6.27637e-05
4.13817e-05
3.73145e-05
2.46426e-05
2.70418e-05
1.14272e-05
2.42647e-05
-1.07799e-06
2.3952e-05
-1.38554e-05
2.50683e-05
-2.82491e-05
2.80968e-05
-4.49277e-05
3.2449e-05
-6.4088e-05
3.75738e-05
-8.36948e-05
3.90328e-05
-9.5541e-05
2.33615e-05
-8.50195e-05
-2.10222e-05
-4.45251e-05
-7.93281e-05
-8.65537e-05
3.91439e-05
-0.000125645
8.13763e-05
-0.000192537
0.000111905
-9.77487e-05
0.000115869
4.0518e-05
9.44332e-05
0.000106963
6.33068e-05
9.38903e-05
3.81597e-05
6.2462e-05
2.22128e-05
4.29885e-05
1.0389e-05
3.60885e-05
-8.50201e-07
3.5191e-05
-1.2677e-05
3.68951e-05
-2.63623e-05
4.17822e-05
-4.26845e-05
4.87711e-05
-6.24751e-05
5.73639e-05
-8.51019e-05
6.16594e-05
-0.000101899
4.01581e-05
-9.36943e-05
-2.92269e-05
-4.96445e-05
-0.000123378
-0.000136198
3.63691e-05
-0.000162015
5.34665e-05
-0.000209634
7.70512e-05
-0.000121333
8.37109e-05
3.38585e-05
7.28406e-05
0.000117834
5.15317e-05
0.000115199
3.31988e-05
8.0795e-05
2.0681e-05
5.55067e-05
1.03229e-05
4.64465e-05
-1.9472e-07
4.57087e-05
-1.16905e-05
4.83912e-05
-2.50959e-05
5.51876e-05
-4.1418e-05
6.5093e-05
-6.22051e-05
7.81509e-05
-8.85253e-05
8.79791e-05
-0.000111751
6.33838e-05
-0.000106029
-3.49494e-05
-5.59104e-05
-0.000173496
-0.000192109
2.49636e-05
-0.000186979
2.48508e-05
-0.000209521
4.40936e-05
-0.000140576
5.26817e-05
2.52703e-05
4.99446e-05
0.000120571
3.90914e-05
0.000126053
2.86038e-05
9.12826e-05
1.94689e-05
6.46417e-05
1.03309e-05
5.55843e-05
3.52133e-07
5.56878e-05
-1.06443e-05
5.93881e-05
-2.3595e-05
6.81383e-05
-3.9735e-05
8.12331e-05
-6.15152e-05
9.99309e-05
-9.2354e-05
0.000118818
-0.000123408
9.44378e-05
-0.000117403
-4.0954e-05
-5.84571e-05
-0.000232443
-0.000250567
-3.57097e-07
-0.000186622
-1.46106e-05
-0.000195267
4.60452e-06
-0.000159791
2.20819e-05
7.79308e-06
2.95135e-05
0.000113139
2.87092e-05
0.000126857
2.47122e-05
9.52793e-05
1.82356e-05
7.11182e-05
1.01898e-05
6.36301e-05
9.14093e-07
6.49637e-05
-9.31866e-06
6.96213e-05
-2.14736e-05
8.02933e-05
-3.70842e-05
9.68435e-05
-5.9691e-05
0.000122537
-9.52729e-05
0.0001544
-0.000132918
0.000132083
-0.00011974
-5.41317e-05
-5.3449e-05
-0.000298734
-0.000304015
-2.65882e-05
-0.000160033
-4.23585e-05
-0.000179497
-2.03341e-05
-0.000181816
4.94097e-07
-1.30351e-05
1.45402e-05
9.90934e-05
2.10709e-05
0.000120326
2.13323e-05
9.50177e-05
1.6802e-05
7.56485e-05
1.00839e-05
7.03484e-05
1.66738e-06
7.33803e-05
-7.63929e-06
7.89277e-05
-1.86903e-05
9.13444e-05
-3.32518e-05
0.000111405
-5.59625e-05
0.000145248
-9.41161e-05
0.000192554
-0.000131463
0.00016943
-0.00010736
-7.82356e-05
-4.3448e-05
-0.000362646
-0.000347463
-3.06703e-05
-0.000129363
-4.34694e-05
-0.000166698
-3.35271e-05
-0.000191758
-1.34854e-05
-3.30772e-05
5.41053e-06
8.01976e-05
1.62474e-05
0.000109489
1.89215e-05
9.23433e-05
1.59588e-05
7.86114e-05
1.0226e-05
7.60815e-05
2.47632e-06
8.11299e-05
-5.65595e-06
8.70598e-05
-1.50721e-05
0.000100761
-2.7765e-05
0.000124098
-4.89158e-05
0.000166399
-8.50038e-05
0.000228642
-0.000113085
0.000197512
-8.65991e-05
-0.000104721
-3.35388e-05
-0.000415707
-0.000381002
1.24903e-05
2.22367e-06
2.81115e-05
-2.38554e-05
4.08282e-05
-4.0357e-05
4.52292e-05
-4.3349e-05
4.5176e-05
-4.21868e-05
4.5351e-05
-3.8377e-05
4.73589e-05
-3.22696e-05
5.07702e-05
-2.59067e-05
5.48519e-05
-2.07297e-05
5.90671e-05
-1.67493e-05
6.30068e-05
-1.33832e-05
6.63961e-05
-1.01706e-05
6.90818e-05
-6.77859e-06
7.09147e-05
-2.88994e-06
7.17463e-05
1.62139e-06
7.23101e-05
5.8597e-06
7.24959e-05
1.07042e-05
7.24418e-05
1.59673e-05
7.25474e-05
2.13529e-05
7.29335e-05
2.69062e-05
7.46927e-05
3.39381e-05
8.11444e-05
4.09589e-05
5.57001e-05
0.00010177
2.35755e-05
-2.13519e-05
5.14647e-05
-5.17446e-05
6.62668e-05
-5.51591e-05
6.135e-05
-3.84321e-05
5.11245e-05
-3.19613e-05
4.52262e-05
-3.24788e-05
4.5069e-05
-3.21124e-05
4.90542e-05
-2.98919e-05
5.51535e-05
-2.68291e-05
6.18416e-05
-2.34373e-05
6.79906e-05
-1.95323e-05
7.27756e-05
-1.49555e-05
7.58356e-05
-9.83857e-06
7.75464e-05
-4.60079e-06
7.88037e-05
3.64119e-07
7.85307e-05
6.13271e-06
7.81016e-05
1.11333e-05
7.76404e-05
1.64286e-05
7.83853e-05
2.0608e-05
8.0914e-05
2.43775e-05
8.60543e-05
2.87977e-05
9.51761e-05
3.18372e-05
3.72309e-05
0.000113645
3.36911e-05
-5.50429e-05
6.26947e-05
-8.07483e-05
6.24421e-05
-5.49065e-05
4.05579e-05
-1.65479e-05
2.53332e-05
-1.67366e-05
1.91134e-05
-2.6259e-05
1.7101e-05
-3.01e-05
1.97565e-05
-3.25475e-05
2.61328e-05
-3.32053e-05
3.48236e-05
-3.21282e-05
4.4689e-05
-2.93978e-05
5.49225e-05
-2.5189e-05
6.49674e-05
-1.98834e-05
7.55669e-05
-1.52004e-05
8.27192e-05
-6.78817e-06
8.57462e-05
3.10575e-06
8.39547e-05
1.29248e-05
8.021e-05
2.01732e-05
7.96537e-05
2.11643e-05
8.19859e-05
2.20453e-05
8.62337e-05
2.45499e-05
9.18507e-05
2.62201e-05
2.73543e-05
0.000101727
2.55611e-05
-8.0604e-05
1.28874e-05
-6.80746e-05
-4.08735e-06
-3.79317e-05
-1.34487e-05
-7.18665e-06
-1.5859e-05
-1.43263e-05
-2.1722e-05
-2.03961e-05
-3.02408e-05
-2.15811e-05
-3.89383e-05
-2.385e-05
-4.76127e-05
-2.45309e-05
-5.52178e-05
-2.4523e-05
-6.1671e-05
-2.29446e-05
-6.59902e-05
-2.08699e-05
-5.93248e-05
-2.65489e-05
-2.65803e-05
-4.79449e-05
3.031e-05
-6.36784e-05
5.97443e-05
-2.63286e-05
7.19392e-05
7.2987e-07
7.9026e-05
1.30864e-05
8.6693e-05
1.34974e-05
8.97348e-05
1.90035e-05
9.07764e-05
2.35083e-05
9.32124e-05
2.37841e-05
2.39445e-05
9.66222e-05
-1.92393e-05
-6.13647e-05
-3.15159e-05
-5.5798e-05
-3.84411e-05
-3.10067e-05
-2.25747e-05
-2.30531e-05
-1.46314e-05
-2.22696e-05
-1.39359e-05
-2.10916e-05
-1.50669e-05
-2.045e-05
-1.77588e-05
-2.1158e-05
-2.0087e-05
-2.22026e-05
-2.0108e-05
-2.45019e-05
-1.7606e-05
-2.54467e-05
-1.67611e-05
-2.17149e-05
-2.87116e-05
-1.45986e-05
-6.14893e-05
-1.51673e-05
-9.74013e-05
-2.77664e-05
-8.67959e-05
-3.69339e-05
-4.83876e-05
-3.76784e-05
1.28313e-05
-4.81324e-05
5.67124e-05
-3.03838e-05
7.46015e-05
1.11442e-06
8.59659e-05
1.21439e-05
9.56733e-05
1.40767e-05
1.94676e-05
0.00010015
-2.58093e-05
-3.55555e-05
-2.85125e-05
-5.30948e-05
-2.1897e-05
-3.76222e-05
-1.74592e-05
-2.7491e-05
-1.61698e-05
-2.3559e-05
-1.55846e-05
-2.16768e-05
-1.59696e-05
-2.0065e-05
-1.73728e-05
-1.97547e-05
-1.82469e-05
-2.13285e-05
-1.78446e-05
-2.49042e-05
-1.54718e-05
-2.78195e-05
-1.16892e-05
-2.54977e-05
-1.29652e-05
-1.33226e-05
-3.24542e-05
4.32176e-06
-5.64738e-05
-3.74674e-06
-5.87318e-05
-3.46758e-05
-4.26933e-05
-5.37168e-05
-3.50023e-05
-5.58234e-05
-2.42455e-05
-4.11406e-05
-9.21516e-06
-1.3916e-05
1.95789e-05
-1.66501e-05
6.35056e-05
-2.985e-05
-2.29063e-06
8.52638e-05
-1.14167e-05
-2.41388e-05
-1.48551e-05
-4.96564e-05
-1.64068e-05
-3.60705e-05
-1.57011e-05
-2.81967e-05
-1.50686e-05
-2.41915e-05
-1.4614e-05
-2.21314e-05
-1.45514e-05
-2.01276e-05
-1.50972e-05
-1.92088e-05
-1.60254e-05
-2.04002e-05
-1.71848e-05
-2.37448e-05
-1.77413e-05
-2.72631e-05
-1.64347e-05
-2.68043e-05
-1.24423e-05
-1.7315e-05
-5.77927e-06
-2.34126e-06
-6.99568e-06
-2.53026e-06
-5.47195e-06
-3.61995e-05
-1.64153e-06
-5.75472e-05
4.19749e-06
-6.16625e-05
2.05967e-05
-5.75397e-05
5.66179e-05
-4.99371e-05
8.73524e-05
-4.73845e-05
9.27259e-05
-3.52235e-05
1.20026e-05
7.84326e-05
-6.9681e-06
-1.71707e-05
-1.10327e-05
-4.55918e-05
-1.25617e-05
-3.45415e-05
-1.27678e-05
-2.79907e-05
-1.22307e-05
-2.47285e-05
-1.17007e-05
-2.26614e-05
-1.13143e-05
-2.05139e-05
-1.15225e-05
-1.90006e-05
-1.26787e-05
-1.92439e-05
-1.48362e-05
-2.15873e-05
-1.72686e-05
-2.48308e-05
-1.80367e-05
-2.60362e-05
-1.37731e-05
-2.15786e-05
-2.84234e-06
-1.3272e-05
9.38333e-06
-1.47559e-05
1.25462e-05
-3.93624e-05
9.28967e-06
-5.42907e-05
1.17192e-05
-6.4092e-05
2.20431e-05
-6.78635e-05
4.10604e-05
-6.89543e-05
6.5617e-05
-7.19411e-05
8.8004e-05
-5.76104e-05
-3.82908e-06
0.000103836
-5.3147e-06
-1.1856e-05
-8.35354e-06
-4.25529e-05
-9.39219e-06
-3.35028e-05
-9.96961e-06
-2.74132e-05
-9.89864e-06
-2.47994e-05
-9.52557e-06
-2.30345e-05
-8.92276e-06
-2.11167e-05
-8.47907e-06
-1.94442e-05
-8.73192e-06
-1.8991e-05
-1.00019e-05
-2.03173e-05
-1.19692e-05
-2.28636e-05
-1.30133e-05
-2.49921e-05
-9.59122e-06
-2.50007e-05
8.64582e-07
-2.37278e-05
1.2669e-05
-2.65604e-05
1.37806e-05
-4.0474e-05
1.11318e-05
-5.1642e-05
8.5295e-06
-6.14897e-05
1.15216e-05
-7.08555e-05
1.77424e-05
-7.5175e-05
2.44695e-05
-7.8668e-05
4.1183e-05
-7.4324e-05
-3.77011e-05
7.50548e-05
-3.49113e-06
-8.36486e-06
-5.94719e-06
-4.00967e-05
-7.17963e-06
-3.22703e-05
-7.83306e-06
-2.67598e-05
-7.97434e-06
-2.46582e-05
-7.70862e-06
-2.33002e-05
-6.98899e-06
-2.18363e-05
-5.97999e-06
-2.04533e-05
-5.14886e-06
-1.98222e-05
-4.95497e-06
-2.05113e-05
-5.40453e-06
-2.24141e-05
-5.65231e-06
-2.47443e-05
-3.86334e-06
-2.67897e-05
1.39764e-06
-2.89889e-05
7.44858e-06
-3.26114e-05
7.98382e-06
-4.10093e-05
5.81264e-06
-4.94708e-05
2.05202e-06
-5.7729e-05
-1.97171e-06
-6.68316e-05
-4.84856e-06
-7.22981e-05
-6.7093e-06
-7.68072e-05
-3.20837e-06
-7.78249e-05
-5.66442e-05
1.57347e-05
-2.27806e-06
-6.08675e-06
-4.27858e-06
-3.80961e-05
-5.4998e-06
-3.1049e-05
-6.20463e-06
-2.60549e-05
-6.46409e-06
-2.43988e-05
-6.32797e-06
-2.34364e-05
-5.70743e-06
-2.2457e-05
-4.61307e-06
-2.15477e-05
-3.33434e-06
-2.1101e-05
-2.29593e-06
-2.15498e-05
-1.70007e-06
-2.301e-05
-1.26894e-06
-2.51755e-05
-3.86025e-07
-2.76728e-05
1.21456e-06
-3.05896e-05
3.00316e-06
-3.44001e-05
2.07422e-06
-4.00804e-05
-1.35412e-06
-4.60424e-05
-7.09312e-06
-5.19898e-05
-1.43321e-05
-5.95924e-05
-2.06738e-05
-6.59563e-05
-2.54021e-05
-7.2079e-05
-2.86776e-05
-7.45495e-05
-6.12863e-05
-2.40356e-05
-1.53598e-06
-4.55066e-06
-3.17229e-06
-3.64596e-05
-4.29548e-06
-2.99257e-05
-5.00844e-06
-2.5342e-05
-5.36766e-06
-2.40396e-05
-5.39245e-06
-2.34118e-05
-5.03127e-06
-2.28183e-05
-4.24543e-06
-2.23337e-05
-3.1698e-06
-2.21768e-05
-2.10979e-06
-2.26099e-05
-1.34164e-06
-2.37783e-05
-9.23788e-07
-2.55935e-05
-7.40525e-07
-2.78561e-05
-7.87063e-07
-3.05431e-05
-1.39528e-06
-3.3792e-05
-3.52917e-06
-3.79465e-05
-7.21837e-06
-4.2353e-05
-1.25637e-05
-4.66443e-05
-2.04027e-05
-5.17533e-05
-2.92643e-05
-5.70946e-05
-3.87246e-05
-6.26187e-05
-4.78692e-05
-6.54049e-05
-5.96531e-05
-4.95023e-05
-1.06692e-06
-3.48362e-06
-2.42937e-06
-3.50969e-05
-3.46619e-06
-2.88888e-05
-4.17469e-06
-2.46335e-05
-4.60255e-06
-2.36118e-05
-4.7815e-06
-2.32329e-05
-4.70004e-06
-2.28999e-05
-4.34038e-06
-2.26935e-05
-3.76188e-06
-2.27554e-05
-3.14962e-06
-2.32223e-05
-2.73996e-06
-2.41881e-05
-2.69535e-06
-2.56382e-05
-3.04917e-06
-2.75024e-05
-3.85984e-06
-2.97325e-05
-5.26168e-06
-3.23901e-05
-7.65009e-06
-3.55579e-05
-1.10857e-05
-3.89172e-05
-1.55105e-05
-4.22194e-05
-2.17768e-05
-4.5487e-05
-3.02808e-05
-4.85906e-05
-4.15199e-05
-5.13797e-05
-5.44728e-05
-5.24519e-05
-4.96259e-05
-6.44999e-05
-8.04103e-07
-2.67938e-06
-1.94856e-06
-3.39522e-05
-2.90239e-06
-2.79349e-05
-3.60592e-06
-2.393e-05
-4.09429e-06
-2.31235e-05
-4.39983e-06
-2.29275e-05
-4.54087e-06
-2.27589e-05
-4.53286e-06
-2.27016e-05
-4.42023e-06
-2.28682e-05
-4.30988e-06
-2.33328e-05
-4.35754e-06
-2.41406e-05
-4.69569e-06
-2.53002e-05
-5.40676e-06
-2.67914e-05
-6.54898e-06
-2.85902e-05
-8.24766e-06
-3.06913e-05
-1.07346e-05
-3.30708e-05
-1.40971e-05
-3.55546e-05
-1.83007e-05
-3.80157e-05
-2.35095e-05
-4.02782e-05
-3.00918e-05
-4.20084e-05
-3.85943e-05
-4.28772e-05
-4.89365e-05
-4.21096e-05
-3.89842e-05
-5.95782e-05
-6.63606e-07
-2.01563e-06
-1.64744e-06
-3.29682e-05
-2.53425e-06
-2.7048e-05
-3.2328e-06
-2.32314e-05
-3.77101e-06
-2.25853e-05
-4.18084e-06
-2.25176e-05
-4.48664e-06
-2.24531e-05
-4.71849e-06
-2.24698e-05
-4.92381e-06
-2.2663e-05
-5.17457e-06
-2.30822e-05
-5.56438e-06
-2.3751e-05
-6.18795e-06
-2.46768e-05
-7.12974e-06
-2.58496e-05
-8.46716e-06
-2.72527e-05
-1.03082e-05
-2.88501e-05
-1.28047e-05
-3.05742e-05
-1.60573e-05
-3.2302e-05
-2.01708e-05
-3.39023e-05
-2.52414e-05
-3.52077e-05
-3.12221e-05
-3.60277e-05
-3.80059e-05
-3.60934e-05
-4.52639e-05
-3.48515e-05
-3.19082e-05
-5.23399e-05
-5.86823e-07
-1.42867e-06
-1.46278e-06
-3.20921e-05
-2.30541e-06
-2.62053e-05
-2.9992e-06
-2.25375e-05
-3.57719e-06
-2.20072e-05
-4.07153e-06
-2.20232e-05
-4.50348e-06
-2.20211e-05
-4.90246e-06
-2.20709e-05
-5.31307e-06
-2.22526e-05
-5.79152e-06
-2.2604e-05
-6.40526e-06
-2.31374e-05
-7.22569e-06
-2.38564e-05
-8.32681e-06
-2.47485e-05
-9.78776e-06
-2.57917e-05
-1.16878e-05
-2.695e-05
-1.41156e-05
-2.81463e-05
-1.71369e-05
-2.92807e-05
-2.08087e-05
-3.02307e-05
-2.51585e-05
-3.0858e-05
-3.0172e-05
-3.10142e-05
-3.5762e-05
-3.05033e-05
-4.16191e-05
-2.89945e-05
-2.6346e-05
-4.71814e-05
-5.41421e-07
-8.87149e-07
-1.35313e-06
-3.12804e-05
-2.16726e-06
-2.53911e-05
-2.85785e-06
-2.18468e-05
-3.466e-06
-2.13989e-05
-4.02787e-06
-2.14612e-05
-4.55944e-06
-2.14895e-05
-5.08433e-06
-2.1546e-05
-5.63975e-06
-2.16973e-05
-6.27316e-06
-2.19708e-05
-7.03743e-06
-2.23732e-05
-7.99124e-06
-2.29026e-05
-9.19816e-06
-2.35415e-05
-1.07144e-05
-2.42754e-05
-1.26133e-05
-2.50512e-05
-1.4944e-05
-2.58156e-05
-1.77507e-05
-2.64742e-05
-2.106e-05
-2.69214e-05
-2.48624e-05
-2.70556e-05
-2.91095e-05
-2.67671e-05
-3.36837e-05
-2.59291e-05
-3.83472e-05
-2.4331e-05
-2.19107e-05
-4.27827e-05
-5.06344e-07
-3.80747e-07
-1.28368e-06
-3.0503e-05
-2.08458e-06
-2.45901e-05
-2.774e-06
-2.11572e-05
-3.40499e-06
-2.07677e-05
-4.01592e-06
-2.08501e-05
-4.62258e-06
-2.08828e-05
-5.24362e-06
-2.09251e-05
-5.90482e-06
-2.10362e-05
-6.64714e-06
-2.12286e-05
-7.51487e-06
-2.15056e-05
-8.55633e-06
-2.18612e-05
-9.80949e-06
-2.22884e-05
-1.13338e-05
-2.2751e-05
-1.31725e-05
-2.32125e-05
-1.53625e-05
-2.36258e-05
-1.79307e-05
-2.39061e-05
-2.08634e-05
-2.39889e-05
-2.4151e-05
-2.3768e-05
-2.77349e-05
-2.31832e-05
-3.15091e-05
-2.2155e-05
-3.52941e-05
-2.05461e-05
-1.83276e-05
-3.88773e-05
-4.70424e-07
8.97014e-08
-1.23897e-06
-2.97344e-05
-2.0338e-06
-2.37952e-05
-2.72136e-06
-2.04695e-05
-3.36646e-06
-2.01223e-05
-4.01107e-06
-2.02053e-05
-4.66838e-06
-2.02254e-05
-5.35257e-06
-2.02409e-05
-6.08814e-06
-2.03007e-05
-6.90324e-06
-2.04136e-05
-7.83101e-06
-2.05778e-05
-8.90759e-06
-2.07846e-05
-1.01754e-05
-2.10205e-05
-1.16689e-05
-2.12576e-05
-1.34136e-05
-2.1468e-05
-1.54431e-05
-2.15964e-05
-1.77461e-05
-2.16031e-05
-2.03406e-05
-2.13943e-05
-2.31824e-05
-2.09262e-05
-2.62199e-05
-2.01457e-05
-2.93637e-05
-1.90114e-05
-3.24794e-05
-1.74306e-05
-1.53844e-05
-3.54227e-05
-4.2874e-07
5.18433e-07
-1.20422e-06
-2.89589e-05
-1.99788e-06
-2.30014e-05
-2.68097e-06
-1.97862e-05
-3.3329e-06
-1.94702e-05
-3.99735e-06
-1.95407e-05
-4.68508e-06
-1.95377e-05
-5.40736e-06
-1.95187e-05
-6.18305e-06
-1.95251e-05
-7.03504e-06
-1.95616e-05
-7.98989e-06
-1.9623e-05
-9.07505e-06
-1.96995e-05
-1.03209e-05
-1.97747e-05
-1.17526e-05
-1.9826e-05
-1.33862e-05
-1.98344e-05
-1.52405e-05
-1.97422e-05
-1.7324e-05
-1.95195e-05
-1.96029e-05
-1.91154e-05
-2.20627e-05
-1.84665e-05
-2.46525e-05
-1.7556e-05
-2.72972e-05
-1.63668e-05
-2.98951e-05
-1.48328e-05
-1.29357e-05
-3.23439e-05
-3.79388e-07
8.97804e-07
-1.17178e-06
-2.81665e-05
-1.96459e-06
-2.22085e-05
-2.63971e-06
-1.91109e-05
-3.29119e-06
-1.88186e-05
-3.96369e-06
-1.88682e-05
-4.66532e-06
-1.88361e-05
-5.40452e-06
-1.87795e-05
-6.19624e-06
-1.87334e-05
-7.05888e-06
-1.86989e-05
-8.01282e-06
-1.8669e-05
-9.07945e-06
-1.86329e-05
-1.02795e-05
-1.85748e-05
-1.16304e-05
-1.84752e-05
-1.31511e-05
-1.83138e-05
-1.48384e-05
-1.80549e-05
-1.66955e-05
-1.76624e-05
-1.871e-05
-1.71009e-05
-2.08478e-05
-1.63287e-05
-2.30696e-05
-1.53344e-05
-2.53169e-05
-1.41197e-05
-2.75128e-05
-1.26371e-05
-1.08694e-05
-2.95792e-05
-3.26159e-07
1.22396e-06
-1.13555e-06
-2.73571e-05
-1.92354e-06
-2.14204e-05
-2.58661e-06
-1.84477e-05
-3.23129e-06
-1.81739e-05
-3.90202e-06
-1.81975e-05
-4.60409e-06
-1.81341e-05
-5.34362e-06
-1.804e-05
-6.13236e-06
-1.79446e-05
-6.98553e-06
-1.78456e-05
-7.91873e-06
-1.77358e-05
-8.94734e-06
-1.76043e-05
-1.00859e-05
-1.74363e-05
-1.13472e-05
-1.7214e-05
-1.27431e-05
-1.69179e-05
-1.42745e-05
-1.65234e-05
-1.59353e-05
-1.60016e-05
-1.77112e-05
-1.5325e-05
-1.95745e-05
-1.44656e-05
-2.14933e-05
-1.34157e-05
-2.34216e-05
-1.21915e-05
-2.53047e-05
-1.07541e-05
-9.09355e-06
-2.70808e-05
-2.68066e-07
1.49203e-06
-1.08767e-06
-2.65374e-05
-1.86477e-06
-2.06432e-05
-2.51253e-06
-1.77999e-05
-3.14487e-06
-1.75416e-05
-3.80524e-06
-1.75373e-05
-4.49752e-06
-1.74419e-05
-5.22616e-06
-1.73114e-05
-6.00079e-06
-1.71699e-05
-6.82988e-06
-1.70165e-05
-7.72521e-06
-1.68404e-05
-8.7021e-06
-1.66275e-05
-9.7707e-06
-1.63679e-05
-1.09394e-05
-1.60454e-05
-1.22136e-05
-1.56436e-05
-1.35912e-05
-1.51457e-05
-1.50693e-05
-1.45235e-05
-1.66338e-05
-1.37604e-05
-1.82629e-05
-1.28365e-05
-1.99337e-05
-1.1745e-05
-2.1617e-05
-1.05082e-05
-2.32462e-05
-9.12519e-06
-7.54238e-06
-2.47976e-05
-2.0549e-07
1.69754e-06
-1.02371e-06
-2.5719e-05
-1.78239e-06
-1.98845e-05
-2.41036e-06
-1.7172e-05
-3.02654e-06
-1.69255e-05
-3.67024e-06
-1.68937e-05
-4.34131e-06
-1.67709e-05
-5.04542e-06
-1.66073e-05
-5.78934e-06
-1.64259e-05
-6.58209e-06
-1.62238e-05
-7.43274e-06
-1.59899e-05
-8.35103e-06
-1.57094e-05
-9.343e-06
-1.5376e-05
-1.04146e-05
-1.49739e-05
-1.15709e-05
-1.44873e-05
-1.28112e-05
-1.39054e-05
-1.4119e-05
-1.32155e-05
-1.5498e-05
-1.23814e-05
-1.69267e-05
-1.14079e-05
-1.8388e-05
-1.02839e-05
-1.98509e-05
-9.04544e-06
-2.12994e-05
-7.67696e-06
-6.15364e-06
-2.26884e-05
-1.40925e-07
1.83851e-06
-9.404e-07
-2.49194e-05
-1.66794e-06
-1.91569e-05
-2.2738e-06
-1.65662e-05
-2.86682e-06
-1.63326e-05
-3.4853e-06
-1.62753e-05
-4.13061e-06
-1.61256e-05
-4.80503e-06
-1.59328e-05
-5.51512e-06
-1.57158e-05
-6.26729e-06
-1.54717e-05
-7.06861e-06
-1.51887e-05
-7.91885e-06
-1.48593e-05
-8.82851e-06
-1.44665e-05
-9.80074e-06
-1.40016e-05
-1.08408e-05
-1.34472e-05
-1.19446e-05
-1.28015e-05
-1.31136e-05
-1.20464e-05
-1.43213e-05
-1.11737e-05
-1.55707e-05
-1.01584e-05
-1.68543e-05
-9.00036e-06
-1.81566e-05
-7.74334e-06
-1.94423e-05
-6.39146e-06
-4.89643e-06
-2.06995e-05
-6.75459e-08
1.90614e-06
-8.33147e-07
-2.41536e-05
-1.52686e-06
-1.84631e-05
-2.10517e-06
-1.59879e-05
-2.67088e-06
-1.5767e-05
-3.25948e-06
-1.56868e-05
-3.87264e-06
-1.55125e-05
-4.5095e-06
-1.5296e-05
-5.17344e-06
-1.50519e-05
-5.87344e-06
-1.47717e-05
-6.61245e-06
-1.44498e-05
-7.39705e-06
-1.40748e-05
-8.22896e-06
-1.36347e-05
-9.11271e-06
-1.31179e-05
-1.0036e-05
-1.25238e-05
-1.10091e-05
-1.18283e-05
-1.20271e-05
-1.10284e-05
-1.30965e-05
-1.01042e-05
-1.41995e-05
-9.05537e-06
-1.53144e-05
-7.88564e-06
-1.64546e-05
-6.60333e-06
-1.76231e-05
-5.22296e-06
-3.73835e-06
-1.87811e-05
2.39266e-08
1.88234e-06
-7.05485e-07
-2.3424e-05
-1.36441e-06
-1.78041e-05
-1.90944e-06
-1.54428e-05
-2.43939e-06
-1.52371e-05
-2.98929e-06
-1.51369e-05
-3.55829e-06
-1.49435e-05
-4.14858e-06
-1.47057e-05
-4.76424e-06
-1.44363e-05
-5.40757e-06
-1.41285e-05
-6.08184e-06
-1.37756e-05
-6.79362e-06
-1.33631e-05
-7.53859e-06
-1.28897e-05
-8.3163e-06
-1.23402e-05
-9.13467e-06
-1.17054e-05
-9.98869e-06
-1.09742e-05
-1.08839e-05
-1.01332e-05
-1.1796e-05
-9.19211e-06
-1.27382e-05
-8.11321e-06
-1.37179e-05
-6.90606e-06
-1.47384e-05
-5.58298e-06
-1.57649e-05
-4.19639e-06
-2.68019e-06
-1.68228e-05
1.33866e-07
1.74864e-06
-5.63672e-07
-2.27263e-05
-1.18802e-06
-1.71797e-05
-1.69696e-06
-1.49339e-05
-2.18521e-06
-1.47489e-05
-2.69038e-06
-1.46318e-05
-3.2103e-06
-1.44235e-05
-3.74613e-06
-1.41698e-05
-4.30095e-06
-1.38815e-05
-4.87914e-06
-1.35503e-05
-5.48226e-06
-1.31725e-05
-6.10346e-06
-1.2742e-05
-6.75201e-06
-1.22412e-05
-7.42751e-06
-1.16647e-05
-8.13129e-06
-1.10016e-05
-8.85845e-06
-1.0247e-05
-9.60043e-06
-9.39114e-06
-1.037e-05
-8.42248e-06
-1.11665e-05
-7.31677e-06
-1.19794e-05
-6.09324e-06
-1.28197e-05
-4.74271e-06
-1.3721e-05
-3.29497e-06
-1.73947e-06
-1.46615e-05
2.64827e-07
1.48396e-06
-4.16905e-07
-2.20444e-05
-1.017e-06
-1.65795e-05
-1.48299e-06
-1.44679e-05
-1.9267e-06
-1.43052e-05
-2.38053e-06
-1.41779e-05
-2.84501e-06
-1.3959e-05
-3.3211e-06
-1.36937e-05
-3.8104e-06
-1.33922e-05
-4.30839e-06
-1.30523e-05
-4.82146e-06
-1.26595e-05
-5.35268e-06
-1.22108e-05
-5.89814e-06
-1.16958e-05
-6.46331e-06
-1.10995e-05
-7.03449e-06
-1.04304e-05
-7.61643e-06
-9.66505e-06
-8.21292e-06
-8.79462e-06
-8.82388e-06
-7.81154e-06
-9.4265e-06
-6.71421e-06
-1.00489e-05
-5.47083e-06
-1.07013e-05
-4.09022e-06
-1.1386e-05
-2.6101e-06
-9.99653e-07
-1.21257e-05
4.1726e-07
1.06679e-06
-2.76618e-07
-2.13505e-05
-8.57405e-07
-1.59987e-05
-1.28162e-06
-1.40437e-05
-1.67588e-06
-1.39109e-05
-2.08321e-06
-1.37705e-05
-2.49515e-06
-1.3547e-05
-2.90652e-06
-1.32823e-05
-3.32233e-06
-1.29763e-05
-3.74476e-06
-1.26298e-05
-4.17244e-06
-1.22318e-05
-4.60643e-06
-1.17769e-05
-5.0455e-06
-1.12568e-05
-5.4821e-06
-1.0663e-05
-5.92029e-06
-9.9923e-06
-6.35245e-06
-9.23294e-06
-6.78161e-06
-8.36553e-06
-7.19278e-06
-7.40049e-06
-7.60023e-06
-6.30684e-06
-7.98854e-06
-5.08251e-06
-8.36797e-06
-3.71066e-06
-8.77432e-06
-2.20363e-06
-5.69038e-07
-9.20493e-06
5.73775e-07
4.93036e-07
-1.52935e-07
-2.06238e-05
-7.2767e-07
-1.5424e-05
-1.11335e-06
-1.3658e-05
-1.46736e-06
-1.35568e-05
-1.83241e-06
-1.34053e-05
-2.19525e-06
-1.31841e-05
-2.55641e-06
-1.29211e-05
-2.91036e-06
-1.26223e-05
-3.26211e-06
-1.2278e-05
-3.61169e-06
-1.18822e-05
-3.95783e-06
-1.14308e-05
-4.29862e-06
-1.09161e-05
-4.62237e-06
-1.03393e-05
-4.93497e-06
-9.67974e-06
-5.22823e-06
-8.93974e-06
-5.48599e-06
-8.10792e-06
-5.71093e-06
-7.17571e-06
-5.8966e-06
-6.12128e-06
-6.03076e-06
-4.94835e-06
-6.10721e-06
-3.63414e-06
-6.15894e-06
-2.15188e-06
-5.49454e-07
-6.17861e-06
7.58781e-07
-2.65768e-07
-4.27517e-08
-1.98223e-05
-6.34827e-07
-1.48319e-05
-9.8876e-07
-1.33039e-05
-1.31695e-06
-1.32285e-05
-1.65385e-06
-1.30683e-05
-1.98489e-06
-1.2853e-05
-2.30712e-06
-1.25988e-05
-2.62153e-06
-1.23079e-05
-2.92589e-06
-1.19737e-05
-3.22079e-06
-1.15874e-05
-3.50156e-06
-1.11501e-05
-3.76406e-06
-1.06537e-05
-4.01183e-06
-1.00916e-05
-4.22719e-06
-9.46442e-06
-4.40918e-06
-8.75787e-06
-4.5334e-06
-7.98387e-06
-4.60956e-06
-7.09969e-06
-4.596e-06
-6.13486e-06
-4.50171e-06
-5.04256e-06
-4.31106e-06
-3.82472e-06
-3.99682e-06
-2.46617e-06
-9.67606e-07
-3.57879e-06
9.40564e-07
-1.20634e-06
2.07312e-08
-1.89024e-05
-5.82565e-07
-1.42285e-05
-9.19873e-07
-1.29665e-05
-1.23939e-06
-1.29089e-05
-1.56463e-06
-1.2743e-05
-1.88167e-06
-1.25359e-05
-2.18792e-06
-1.22925e-05
-2.48332e-06
-1.20125e-05
-2.76778e-06
-1.16893e-05
-3.03322e-06
-1.13221e-05
-3.28416e-06
-1.08993e-05
-3.51473e-06
-1.04231e-05
-3.71163e-06
-9.89468e-06
-3.87315e-06
-9.30296e-06
-3.9809e-06
-8.65027e-06
-4.03353e-06
-7.93137e-06
-3.9942e-06
-7.13905e-06
-3.86488e-06
-6.26407e-06
-3.61265e-06
-5.29466e-06
-3.21601e-06
-4.22135e-06
-2.63358e-06
-3.04872e-06
-1.73916e-06
-1.8622e-06
1.10061e-06
-2.30693e-06
5.87799e-08
-1.78606e-05
-5.5783e-07
-1.36119e-05
-8.88336e-07
-1.2636e-05
-1.21311e-06
-1.2584e-05
-1.5422e-06
-1.24139e-05
-1.85998e-06
-1.22181e-05
-2.16582e-06
-1.19867e-05
-2.45979e-06
-1.17186e-05
-2.74028e-06
-1.14089e-05
-3.00844e-06
-1.10541e-05
-3.25489e-06
-1.06529e-05
-3.47498e-06
-1.0203e-05
-3.66664e-06
-9.70295e-06
-3.81017e-06
-9.15949e-06
-3.89913e-06
-8.56145e-06
-3.91415e-06
-7.91645e-06
-3.83704e-06
-7.21611e-06
-3.64419e-06
-6.4568e-06
-3.30878e-06
-5.63e-06
-2.79174e-06
-4.73847e-06
-2.07046e-06
-3.77015e-06
-2.72402e-06
-1.08573e-06
1.21533e-06
-3.52226e-06
7.53916e-08
-1.67207e-05
-5.40954e-07
-1.29956e-05
-8.71229e-07
-1.23057e-05
-1.211e-06
-1.22442e-05
-1.54266e-06
-1.20822e-05
-1.86433e-06
-1.18964e-05
-2.17562e-06
-1.16754e-05
-2.47647e-06
-1.14177e-05
-2.7654e-06
-1.112e-05
-3.0398e-06
-1.07796e-05
-3.2948e-06
-1.03977e-05
-3.52542e-06
-9.97217e-06
-3.71765e-06
-9.51067e-06
-3.86888e-06
-9.00834e-06
-3.95292e-06
-8.47755e-06
-3.96553e-06
-7.90389e-06
-3.88451e-06
-7.29708e-06
-3.68492e-06
-6.65631e-06
-3.32357e-06
-5.99137e-06
-2.77327e-06
-5.28887e-06
-1.99053e-06
-4.55297e-06
-3.79968e-06
-9.14854e-07
1.2739e-06
-4.79619e-06
7.65884e-08
-1.55235e-05
-5.14485e-07
-1.24046e-05
-8.39487e-07
-1.19808e-05
-1.18451e-06
-1.18992e-05
-1.51456e-06
-1.17521e-05
-1.83464e-06
-1.15763e-05
-2.14541e-06
-1.13646e-05
-2.44732e-06
-1.11159e-05
-2.73891e-06
-1.08284e-05
-3.01354e-06
-1.05049e-05
-3.26886e-06
-1.01423e-05
-3.49709e-06
-9.74384e-06
-3.69263e-06
-9.31516e-06
-3.84061e-06
-8.86046e-06
-3.93314e-06
-8.3851e-06
-3.94629e-06
-7.89071e-06
-3.86505e-06
-7.37824e-06
-3.66239e-06
-6.85895e-06
-3.31231e-06
-6.34152e-06
-2.77256e-06
-5.82869e-06
-1.99287e-06
-5.33263e-06
-4.87681e-06
-9.15635e-07
1.26804e-06
-6.0643e-06
6.87999e-08
-1.43245e-05
-4.69557e-07
-1.18663e-05
-7.791e-07
-1.16712e-05
-1.11209e-06
-1.15662e-05
-1.42572e-06
-1.14385e-05