/*--------------------------------*- C++ -*----------------------------------*\
  =========                 |
  \\      /  F ield         | OpenFOAM: The Open Source CFD Toolbox
   \\    /   O peration     | Website:  https://openfoam.org
    \\  /    A nd           | Version:  13
     \\/     M anipulation  |
\*---------------------------------------------------------------------------*/
FoamFile
{
    format      ascii;
    class       volScalarField;
    location    "0.45";
    object      rho;
}
// * * * * * * * * * * * * * * * * * * * * * * * * * * * * * * * * * * * * * //

dimensions      [1 -3 0 0 0 0 0];

internalField   nonuniform List<scalar> 
2268
(
1000
1000
1000
1000
1000
1000
1000
1000
1000
1000
1000
1000
1000
1000
1000
1000
1000
1000
1000
920.848
870.546
919.237
998.582
1000
1000
1000
1000
1000
1000
1000
1000
1000
1000
1000
1000
1000
1000
1000
1000
1000
1000
1000
988.335
870.546
956.13
998.595
1000
1000
1000
1000
1000
1000
1000
1000
1000
1000
1000
1000
1000
1000
1000
1000
1000
1000
1000
999.993
911.047
974.881
998.61
1000
1000
1000
1000
1000
1000
1000
1000
1000
1000
1000
1000
1000
1000
1000
1000
1000
1000
1000
1000
997.737
998.477
998.741
1000
1000
1000
1000
1000
1000
1000
1000
1000
1000
1000
1000
1000
1000
1000
1000
1000
1000
1000
999.999
999.997
999.972
999.227
1000
1000
1000
999.999
999.999
999.999
1000
1000
1000
1000
1000
1000
1000
1000
1000
1000
1000
1000
1000
1000
1000
999.993
999.206
1000
1000
1000
999.99
999.988
999.992
999.995
999.998
999.999
1000
1000
1000
1000
1000
1000
1000
1000
1000
1000
1000
1000
1000
999.205
1000
1000
999.976
999.887
999.875
999.915
999.955
999.971
999.982
999.99
999.994
999.997
999.998
999.999
1000
1000
1000
1000
1000
1000
1000
1000
999.231
1.08933
1.07686
1.05236
1.01427
1.00078
1.00007
1
1
1
1
1
1
1
1
1
1
1.00002
1.00008
1.00038
1.10058
1.1472
1.19919
1.07687
1.0068
1.00083
1.00007
1
1
1
1
1
1
1
1
1.00003
1.00032
1.00048
1.00126
1.28689
1.64379
2.83371
1.62738
1.03094
1.00398
1.00031
1.00002
1
1
1
1
1
1
1.00002
1.00017
1.00226
1.00485
1.0109
3.4542
12.2192
9.84765
2.36109
1.02698
1.0029
1.00021
1.00001
1
1
1
1
1
1.00001
1.00012
1.00101
1.01103
1.03562
1.07437
6.39291
20.5676
5.38189
1.44979
1.06297
1.00623
1.00041
1.00002
1
1
1
1
1
1.00004
1.0005
1.00439
1.0372
1.16135
1.38141
7.23329
2.49492
1.11863
1.16555
1.07139
1.0054
1.0003
1.00001
1
1
1
1
1.00001
1.00013
1.00179
1.01563
1.10716
1.55428
2.44359
192.742
1.14716
1.05329
1.05472
1.0226
1.00238
1.00009
1
1
1
1
1
1.00003
1.00039
1.00609
1.05533
1.44556
3.87791
5.52032
591.112
1.89222
1.01009
1.00499
1.00216
1.00059
1.00001
1
1
1
1
1
1.00005
1.00156
1.02266
1.13289
2.72511
12.5322
11.7657
1000
999.99
999.523
998.811
998.802
999.14
999.488
999.694
999.767
999.824
999.869
999.904
999.936
999.961
999.986
1000
1000
1000
1000
1000
1000
1000
999.457
1000
984.651
865.687
774.092
800.743
841.089
860.957
882.301
910.001
937.647
961.004
979.556
992.295
997.36
998.67
999.999
1000
1000
1000
1000
1000
1000
999.937
769.545
414.933
133.124
79.0547
121.582
147.563
149.33
164.016
197.151
242.676
297.66
366.966
460.505
587.371
729.119
894.704
999.993
999.999
1000
1000
1000
1000
1000
13.9266
1
1
1
1
1
1
1
1
1
1.00001
1.00001
1.00004
1.00075
30.1234
86.4012
195.468
424.683
803.384
999.995
999.999
999.999
999.997
1
1
1
1
1
1
1
1
1
1
1
1.00001
1.00001
1.00004
1.00076
1.01004
1.19639
13.5554
66.8035
187.899
435.938
866.054
999.984
1
1
1
1
1
1
1
1
1
1.00007
1.00031
1.00034
1.00007
1.00008
1.00758
1.03099
1.04728
1.04748
1.06123
1.11613
11.36
92.0982
264.298
1
1
1
1
1
1
1
1
1
1.0002
1.00053
1.00053
1.00035
1.00012
1.0006
1.14956
1.24613
1.28052
1.38941
1.54256
1.37578
1.19661
1.14722
1
1
1
1
1
1
1
1
1
1.00013
1.00053
1.0005
1.00011
1.00012
1.00013
1.03048
1.00232
1.10443
1.03849
1.00045
1.08734
1.25724
1.11828
1
1
1
1
1
1
1
1
1
1.00001
1.00005
1.00005
1
1.00041
1.00137
1
1
1
1
1.00019
1.00811
1.08502
1.08471
1
1
1
1
1
1
1
1
1
1
1
1
1
1.00064
1.00181
1.00006
1
1
1
1.0042
1.10462
1.29003
1.2565
1
1
1
1
1
1
1
1
1
1
1
1
1.00001
1.00006
1.00007
1
1
1
1
1
1.04135
1.24235
1.4509
1
1
1
1
1
1
1
1
1
1
1
1
1
1
1
1
1
1
1
1
1
1
1.01061
1
1
1
1
1
1
1
1
1
1
1
1
1
1
1
1
1
1
1
1
1
1
1
1
1
1
1
1
1
1
1
1
1
1
1
1
1
1
1
1
1
1
1
1
1
1
1
1
1
1
1
1
1
1
1
1
1
1
1
1
1
1
1
1
1
1
1
1
1
1
1
1
1
1
1
1
1
1
1
1
1
1
1
1
1
1
1
1
1
1
1
1
1
1
1
1
1
1
1
1
1
1
1
1
1
1
1
1
1
1
1
1
1
1
1
1
1
1
1
1
1
1
1
1
1
1
1
1
1
1
1
1
1
1
1
1
1
1
1
1
1
1
1
1
1
1
1
1
1
1
1
1
1
1
1
1
1
1
1
1
1
1
1
1
1
1
1
1
1
1
1
1
1
1
1
1
1
1
1
1
1
1
1
1
1
1
1
1
1
1
1
1
1
1
1
1
1
1
1
1
1
1
1
1
1
1
1
1
1
1
1
1
1
1
1
1
1
1
1
1
1
1
1
1
1
1
1
1
1
1
1
1
1
1
1
1
1
1
1
1
1
1
1
1
1
1
1
1
1
1
1
1
1
1
1
1
1
1
1
1
1
1
1
1
1
1
1
1
1
1
1
1
1
1
1
1
1
1
1
1
1
1
1
1
1
1
1
1
1
1
1
1
1
1
1
1
1
1
1
1
1
1
1
1
1
1
1
1
1
1
1
1
1
1
1
1
1
1
1
1
1
1
1
1
1
1
1
1
1
1
1
1
1
1
1
1
1
1
1
1
1
1
1
1
1
1
1
1
1
1
1
1
1
1
1
1
1
1
1
1
1
1
1
1
1
1
1
1
1
1
1
1
1
1
1
1
1
1
1
1
1
1
1
1
1
1
1
1
1
1
1
1
1
1
1
1
1
1
1
1
1
1
1
1
1
1
1
1
1
1
1
1
1
1
1
1
1
1
1
1
1
1
1
1
1
1
1
1
1
1
1
1
1
1
1
1
1
1
1
1
1
1
1
1
1
1
1
1
1
1
1
1
1
1
1
1
1
1
1
1
1
1
1
1
1
1
1
1
1
1
1
1
1
1
1
1
1
1
1
1
1
1
1
1
1
1
1
1
1
1
1
1
1
1
1
1
1
1
1
1
1
1
1
1
1
1
1
1
1
1
1
1
1
1
1
1
1
1
1
1
1
1
1
1
1
1
1
1
1
1
1
1
1
1
1
1
1
1
1
1
1
1
1
1
1
1
1
1
1
1
1
1
1
1
1
1
1
1
1
1
1
1
1
1
1
1
1
1
1
1
1
1
1
1
1
1
1
1
1
1
1
1
1
1
1
1
1
1
1
1
1
1
1
1
1
1
1
1
1
1
1
1
1
1
1
1
1
1
1
1
1
1
1
1
1
1
1
1
1
1
1
1
1
1
1
1
1
1
1
1
1
1
1
1
1
1
1
1
1
1
1
1
1
1
1
1
1
1
1
1
1
1
1
1
1
1
1
1
1
1
1
1
1
1
1
1
1
1
1
1
1
1
1
1
1
1
1
1
1
1
1
1
1
1
1
1
1
1
1
1
999.583
999.871
999.896
999.965
999.619
999.678
999.903
999.983
999.99
999.98
999.925
999.986
999.987
999.982
999.986
999.986
999.983
999.983
999.985
999.986
448.103
636.217
945.855
999.968
3.60813
21.1573
77.2847
159.963
1.14001
1.10513
1.31407
1.24273
1.0838
1.0854
1.09673
1.12264
1.19006
1.12225
1.12736
1.13487
1.45449
1.45449
1.45449
1.45373
1.2177
1.3526
1.42938
1.38167
1
1
1
1.04036
1
1
1
1
1
1
1
1
1
1
1
1
1
1
1
1
1
1
1
1
1
1
1
1
1
1
1
1
1
1
1
1
1
1
1
1
1
1
1
1
1
1
1
1
1
1
1
1
1
1
1
1
1
1
1
1
1
1
1
1
1
1
1
1
1
1
1
1
1
1
1
1
1
1
1
1
1
1
1
1
1
1
1
1
1
1
1
1
1
1
1
1
1
1
1
1
1
1
1
1
1
1
1
1
1
1
1
1
1
1
1
1
1
1
1
1
856.33
5.26681
1.02671
1.00468
1.00011
1.00001
1
1
1
1
1
1
1.00002
1.00034
1.00771
1.10064
4.53722
21.9945
18.0955
999.986
430.243
1.58833
1.00422
1.00032
1.00011
1.00201
1.003
1.00049
1
1
1
1.00004
1.00117
1.01762
1.13699
4.02511
18.7341
44.4498
999.986
871.523
34.3074
1.01065
1.00213
1.00075
1.00263
1.00288
1.00032
1
1.00003
1
1.00001
1.00026
1.00481
1.06634
1.58773
3.98465
477.779
999.986
999.986
406.404
1.40515
1.00069
1.00037
1.00016
1.00017
1.00003
1
1
1
1
1.00006
1.00024
1.00178
1.02539
1.10354
802.828
999.986
999.986
936.592
136.782
2.70378
1.0002
1.04291
1.00001
1
1
1
1
1
1.00904
1.12536
1.0243
1.05178
2.09184
866.579
999.984
999.986
999.862
858.675
716.209
537.349
183.41
1.00002
1.00001
86.856
153.954
106.763
48.6169
77.1475
1.20113
1.0481
45.5115
245.654
910.744
438.121
958.229
997.998
992.325
984.863
973.864
926.588
701.517
572.599
687.088
842.503
847.093
808.63
809.171
572.834
642.605
797.43
931.724
944.309
6.77877
131.087
399.316
709.853
943.074
956.399
948.288
946.247
936.2
920.144
913.008
915.592
917.81
923.875
935.978
943.006
944.235
944.309
944.309
1.14817
1.18394
1.57309
44.8716
163.878
340.393
515.802
629.692
713.104
765.398
772.577
766.334
760.633
784.706
909.294
942.886
944.145
944.238
942.379
1.13886
1.1726
1.19351
1.4695
2.00218
1.88282
7.719
25.2494
56.4518
88.7407
96.5692
94.163
95.0923
106.241
157.219
412.371
889.498
944.145
910.475
1.3398
1.2981
1.49915
1.67626
1.54846
1.38626
1.1504
1.03796
1.08023
1.11601
1.11034
1.18863
1.39036
1.78255
3.72606
11.5803
535.566
931.445
916.714
1.32775
1.4448
1.52125
1.49706
1.23572
1.03848
1.00509
1.00064
1.00075
1.00241
1.00412
1.00958
1.11221
1.18723
1.68762
4.60432
560.216
920.913
828.206
1.08472
1.10438
1.09193
1.02323
1.00005
1.00005
1.00002
1.00006
1.0002
1.00048
1.00144
1.00336
1.01464
1.19667
2.1269
91.7442
731.58
920.831
711.823
1
1
1.00002
1
1.00001
1
1
1.00005
1.00017
1.0002
1.00047
1.00533
1.09059
1.79508
15.3704
497.749
919.189
920.878
711.224
1
1
1
1
1
1
1
1
1.00001
1.00065
1.00181
1.00829
1.08513
1.81013
9.44349
360.338
860.43
920.88
711.43
1
1
1
1
1
1
1
1
1
1.00106
1.0067
1.01562
1.18785
4.86243
14.4472
9.99602
573.893
920.879
878.617
1
1
1
1
1
1
1
1
1
1.00031
1.00688
1.01289
1.18317
2.89296
1.74496
3.14349
499.861
796.536
868.073
1
1
1
1
1
1
1
1
1
1.00001
1.00175
1.00993
1.03321
1.03437
1.02153
99.3488
559.339
400.82
599.281
1
1
1
1
1
1
1.00003
1.00003
1.00002
1.00001
1.00022
1.00962
1.00832
1.01354
1.01829
184.007
553.924
65.7414
87.3605
1
1
1
1
1
1
1.00028
1.00119
1.0011
1.00008
1.00007
1.00613
1.00634
1.00775
1.02188
199.976
473.248
64.3198
62.3755
1
1
1
1
1
1
1.00033
1.00168
1.00169
1.00055
1.00006
1.00119
1.00898
1.01311
1.42777
131.351
470.969
62.9031
61.7542
1
1
1
1
1
1
1
1.00037
1.00169
1.00161
1.00006
1.00075
1.01005
1.01274
1.17283
62.4635
380.023
145.991
61.7015
1
1
1
1
1
1.00003
1.00006
1.00016
1.00164
1.00191
1.00094
1.00171
1.00843
1.04811
2.09365
1.91899
86.5294
308.701
61.6985
1
1
1
1
1
1.00011
1.00104
1.00126
1.00138
1.00192
1.00199
1.00174
1.00415
1.07492
1.62731
1.67624
20.2775
324.715
61.699
1
1
1
1
1
1.0001
1.00135
1.00156
1.00156
1.00153
1.00095
1.00097
1.00145
1.04869
1.13567
3.05451
55.8519
325.26
228.383
1
1
1
1
1
1
1.00004
1.00124
1.00156
1.00091
1.00082
1.00112
1.00399
1.02511
1.1915
2.5644
117.334
325.645
308.09
1
1
1
1
1
1
1.00001
1.00007
1.00082
1.00088
1.00065
1.00088
1.00347
1.0251
1.22616
1.84592
81.1398
316.069
306.353
1
1
1
1
1
1.00007
1.00025
1.00014
1.00034
1.00079
1.00046
1.00089
1.00889
1.12356
1.29116
1.12321
1.58135
153.007
301.633
1
1
1
1
1
1.00011
1.00031
1.00031
1.00031
1.00043
1.00039
1.00071
1.01129
1.04031
1.02441
1.01911
1.44567
69.783
296.099
1
1
1
1
1
1.00002
1.00002
1.00026
1.00031
1.00029
1.00032
1.00026
1.00288
1.00292
1.00415
1.005
1.03564
58.0995
251.293
1
1
1
1
1
1.00001
1.00001
1.00004
1.00015
1.00006
1.00007
1.00006
1.0042
1.0036
1.00479
1.03687
1.11773
135.069
252.093
1
1
1
1
1.00001
1.00001
1.00001
1.00001
1.00002
1.00002
1.00002
1.00003
1.00006
1.00058
1.00396
1.11209
153.992
252.093
252.356
1
1
1
1
1
1
1.00002
1.00001
1.00046
1.0234
1.02495
1.05874
1.00815
1.00274
5.35061
62.0544
228.173
252.356
252.356
1
1
1
1
1
1
1.0001
1.00011
1.00011
1.00005
1.27348
1.52712
1.37628
1.03175
22.2554
35.6687
18.5137
171.993
252.356
1
1
1
1
1
1
1.00011
1.00016
1.00012
1.00001
1.00002
1.00193
1.48437
6.13932
13.3332
7.89238
2.13474
5.94622
249.819
1
1
1
1
1
1
1.00002
1.0001
1.00006
1
1.00001
1.00536
1.08434
9.78641
10.7596
2.97158
1.62015
1.66674
223.832
1
1
1
1
1
1
1
1
1
1
1.00012
1.14134
7.57879
16.4334
9.98882
1.83181
1.4727
1.44126
179.806
1
1
1
1
1
1
1
1
1
1
1
10.2172
17.483
17.3149
4.35992
1.47302
1.41662
1.39789
188.674
1
1
1
1
1
1
1
1
1
1
1
12.7218
17.4879
14.6238
1.89148
1.41844
1.39756
1.39152
190.72
1
1
1
1
1
1
1
1
1
1
1
3.38877
18.1827
16.0641
2.35822
1.40848
1.39056
1.39313
186.5
1
1
1
1
1
1
1
1
1
1
1
1.26124
18.7487
19.3536
8.6575
1.44239
1.39687
1.3916
83.7718
1
1
1
1
1
1
1
1
1
1
1
1.13984
15.5928
19.3536
12.3402
1.55845
1.4033
1.39619
45.9599
)
;

boundaryField
{
    leftWall
    {
        type            calculated;
        value           nonuniform List<scalar> 
50
(
1000
1000
1000
1000
1000
1000
1000
1000
1000
1000
769.545
13.9266
1
1
1
1
1
1
1
1
1
1
1
1
1
1
1
1
1
1
1
1
1
1
1
1
1
1
1
1
1
1
1
1
1
1
1
1
1
1
)
;
    }
    rightWall
    {
        type            calculated;
        value           nonuniform List<scalar> 
50
(
1.00038
1.00126
1.0109
1.07437
1.38141
2.44359
5.52032
11.7657
18.0955
44.4498
477.779
802.828
866.579
910.744
944.309
944.309
942.379
910.475
916.714
828.206
711.823
711.224
711.43
878.617
868.073
599.281
87.3605
62.3755
61.7542
61.7015
61.6985
61.699
228.383
308.09
306.353
301.633
296.099
251.293
252.093
252.356
252.356
252.356
249.819
223.832
179.806
188.674
190.72
186.5
83.7718
45.9599
)
;
    }
    lowerWall
    {
        type            calculated;
        value           nonuniform List<scalar> 
62
(
1000
1000
1000
1000
1000
1000
1000
1000
1000
1000
1000
1000
1000
1000
1000
1000
1000
1000
1000
920.848
870.546
919.237
998.582
998.582
998.595
998.61
998.741
999.227
999.206
999.205
999.231
999.583
999.871
999.896
999.965
1.08933
1.10058
1.28689
3.4542
6.39291
7.23329
192.742
591.112
1.08933
1.07686
1.05236
1.01427
1.00078
1.00007
1
1
1
1
1
1
1
1
1
1
1.00002
1.00008
1.00038
)
;
    }
    atmosphere
    {
        type            calculated;
        value           nonuniform List<scalar> 
46
(
1
1
1
1
1
1
1
1
1
1
1
1
1
1
1
1
1
1
1
1
1
1
1
1
1
1
1
1
1
1
1
1
1
1
1
1
1
1
1
1
19.3536
12.3402
1.55845
1.4033
1.39619
45.9599
)
;
    }
    defaultFaces
    {
        type            empty;
    }
}


// ************************************************************************* //
