/*--------------------------------*- C++ -*----------------------------------*\
  =========                 |
  \\      /  F ield         | OpenFOAM: The Open Source CFD Toolbox
   \\    /   O peration     | Website:  https://openfoam.org
    \\  /    A nd           | Version:  13
     \\/     M anipulation  |
\*---------------------------------------------------------------------------*/
FoamFile
{
    format      ascii;
    class       surfaceScalarField;
    location    "0.8";
    object      alphaPhi.water;
}
// * * * * * * * * * * * * * * * * * * * * * * * * * * * * * * * * * * * * * //

dimensions      [0 3 -1 0 0 0 0];

internalField   nonuniform List<scalar> 
4432
(
-4.70365e-06
4.70365e-06
-1.00114e-05
5.30773e-06
-1.50433e-05
5.03193e-06
-1.99847e-05
4.9414e-06
-2.38132e-05
3.82848e-06
-2.47544e-05
9.41224e-07
-2.31286e-05
-1.62583e-06
-2.1041e-05
-2.0876e-06
-1.98858e-05
-1.1552e-06
-1.95666e-05
-3.19236e-07
-1.9598e-05
3.14947e-08
-1.96575e-05
5.9453e-08
-1.96318e-05
-2.57147e-08
-1.94174e-05
-2.14327e-07
-1.85984e-05
-8.18962e-07
-1.69335e-05
-1.44272e-06
-1.68564e-05
3.98009e-07
-2.16092e-05
3.95542e-06
-2.61568e-05
4.55736e-06
-2.51543e-05
-9.92955e-07
-1.83252e-05
-6.76398e-06
-8.73731e-06
-9.54244e-06
-8.7581e-06
-7.15341e-06
1.18571e-05
-1.34677e-05
1.1622e-05
-1.87167e-05
1.0281e-05
-2.31785e-05
9.40318e-06
-2.58811e-05
6.53114e-06
-2.59611e-05
1.02119e-06
-2.39145e-05
-3.67242e-06
-2.14747e-05
-4.52742e-06
-2.00808e-05
-2.54908e-06
-1.96811e-05
-7.18914e-07
-1.95569e-05
-9.26869e-08
-1.92236e-05
-2.73882e-07
-1.85763e-05
-6.73029e-07
-1.79417e-05
-8.48881e-07
-1.80725e-05
-6.87984e-07
-1.93156e-05
1.58251e-07
-2.11275e-05
2.85185e-06
-2.2625e-05
5.31663e-06
-2.08899e-05
2.49222e-06
-1.62918e-05
-5.47657e-06
-1.09421e-05
-1.19733e-05
-5.47234e-06
-1.52174e-05
-1.42311e-05
-6.7912e-06
1.86483e-05
-1.25205e-05
1.73512e-05
-1.75977e-05
1.53582e-05
-2.24057e-05
1.42112e-05
-2.57917e-05
9.91714e-06
-2.63553e-05
1.58474e-06
-2.45323e-05
-5.49539e-06
-2.22372e-05
-6.82253e-06
-2.08191e-05
-3.96714e-06
-2.03115e-05
-1.2265e-06
-1.99932e-05
-4.11028e-07
-1.9166e-05
-1.10106e-06
-1.75739e-05
-2.26514e-06
-1.55045e-05
-2.91821e-06
-1.38084e-05
-2.3841e-06
-1.3352e-05
-2.97676e-07
-1.30417e-05
2.9459e-06
-1.13911e-05
4.13516e-06
-8.29701e-06
-6.63428e-07
-4.84756e-06
-8.98836e-06
-2.57224e-06
-1.43121e-05
-8.20129e-07
-1.74569e-05
-1.50519e-05
-5.58134e-06
2.42296e-05
-1.06602e-05
2.24301e-05
-1.55197e-05
2.02177e-05
-2.01453e-05
1.88367e-05
-2.33344e-05
1.31063e-05
-2.41915e-05
2.44179e-06
-2.32862e-05
-6.40065e-06
-2.22655e-05
-7.84321e-06
-2.16628e-05
-4.56986e-06
-2.14498e-05
-1.43946e-06
-2.12694e-05
-5.91428e-07
-2.04671e-05
-1.90339e-06
-1.86334e-05
-4.09881e-06
-1.58559e-05
-5.69576e-06
-1.26064e-05
-5.63355e-06
-9.26656e-06
-3.63753e-06
-5.67487e-06
-6.43825e-07
-1.79773e-06
3.44879e-07
1.36466e-06
-3.86084e-06
3.22928e-06
-1.11449e-05
2.88372e-06
-1.45178e-05
1.92512e-06
-1.64983e-05
-1.31275e-05
-3.98798e-06
2.82176e-05
-8.12986e-06
2.6572e-05
-1.215e-05
2.42378e-05
-1.56825e-05
2.23693e-05
-1.79025e-05
1.53262e-05
-1.88471e-05
3.3864e-06
-1.95899e-05
-5.65776e-06
-2.0938e-05
-6.49512e-06
-2.21842e-05
-3.32369e-06
-2.28114e-05
-8.12242e-07
-2.28468e-05
-5.56041e-07
-2.2008e-05
-2.74223e-06
-1.99664e-05
-6.14039e-06
-1.6872e-05
-8.79011e-06
-1.31853e-05
-9.3203e-06
-9.07461e-06
-7.7482e-06
-4.33012e-06
-5.38834e-06
4.07143e-07
-4.39238e-06
3.74449e-06
-7.19819e-06
4.63543e-06
-1.20358e-05
3.68621e-06
-1.35686e-05
2.33104e-06
-1.51431e-05
-1.07964e-05
-1.91452e-06
3.01321e-05
-4.60117e-06
2.92586e-05
-7.39441e-06
2.7031e-05
-9.55447e-06
2.45293e-05
-1.06359e-05
1.64077e-05
-1.17336e-05
4.48406e-06
-1.45611e-05
-2.82966e-06
-1.8759e-05
-2.29582e-06
-2.23031e-05
2.19648e-07
-2.4197e-05
1.08161e-06
-2.46633e-05
-8.97028e-08
-2.37536e-05
-3.65191e-06
-2.129e-05
-8.60405e-06
-1.76367e-05
-1.24434e-05
-1.35668e-05
-1.33902e-05
-9.49204e-06
-1.1823e-05
-5.22591e-06
-9.65446e-06
-1.00082e-06
-8.61747e-06
1.82488e-06
-1.00239e-05
2.92106e-06
-1.3132e-05
2.54749e-06
-1.3195e-05
1.94137e-06
-1.4537e-05
-8.85507e-06
2.39822e-07
2.98923e-05
-7.85845e-07
3.02843e-05
-2.14481e-06
2.839e-05
-2.70076e-06
2.50853e-05
-2.49528e-06
1.62022e-05
-4.34679e-06
6.33558e-06
-1.02062e-05
3.02971e-06
-1.70635e-05
4.55332e-06
-2.24391e-05
5.59368e-06
-2.56756e-05
4.31816e-06
-2.67638e-05
9.98452e-07
-2.58023e-05
-4.61341e-06
-2.27128e-05
-1.16935e-05
-1.81146e-05
-1.70416e-05
-1.33037e-05
-1.8201e-05
-9.02973e-06
-1.60969e-05
-5.06349e-06
-1.36207e-05
-1.39457e-06
-1.22864e-05
1.24072e-06
-1.26592e-05
2.58952e-06
-1.44808e-05
2.82649e-06
-1.3432e-05
2.3168e-06
-1.40273e-05
-6.53831e-06
2.58005e-06
2.73122e-05
4.3807e-06
2.84837e-05
5.80526e-06
2.69654e-05
6.949e-06
2.39416e-05
5.74033e-06
1.74109e-05
-2.34435e-07
1.16848e-05
-9.45724e-06
1.17068e-05
-1.71283e-05
1.21827e-05
-2.27412e-05
1.12066e-05
-2.67884e-05
8.36525e-06
-2.8734e-05
2.94407e-06
-2.77513e-05
-5.59554e-06
-2.32762e-05
-1.6168e-05
-1.69527e-05
-2.33649e-05
-1.12844e-05
-2.38691e-05
-7.02804e-06
-2.03533e-05
-3.37127e-06
-1.72774e-05
2.17191e-08
-1.56794e-05
2.68477e-06
-1.53222e-05
4.06676e-06
-1.58628e-05
4.60085e-06
-1.39661e-05
3.55327e-06
-1.29797e-05
-2.98495e-06
-1.74152e-05
1.71892e-05
-4.2507e-05
2.51033e-05
-5.08175e-05
9.07796e-06
-4.3111e-05
-7.18922e-06
-2.72749e-05
-1.64803e-05
-9.48886e-06
-1.85072e-05
-8.39907e-06
1.05734e-06
-2.33675e-05
1.17746e-05
-5.63128e-05
2.92842e-05
-8.18779e-05
2.94897e-05
-4.96277e-05
-2.45762e-05
-9.96646e-06
-4.00367e-05
1.06812e-05
-2.12917e-05
2.75773e-05
-1.16842e-05
3.02563e-05
-5.26642e-06
2.59144e-05
3.12029e-06
1.44807e-05
1.2427e-05
6.26364e-06
8.93052e-06
5.62717e-06
-2.58249e-05
4.28378e-05
-4.23252e-05
4.16178e-05
-4.18155e-05
8.58638e-06
-3.30409e-05
-1.59393e-05
-1.80805e-05
-3.13264e-05
-6.30761e-06
-3.01344e-05
-1.97126e-05
1.70621e-05
-7.04924e-05
5.79292e-05
-9.88005e-05
6.79575e-05
-6.77576e-05
1.1133e-05
-2.59609e-05
-6.24123e-05
4.26533e-06
-7.66433e-05
1.98123e-05
-4.01687e-05
3.32876e-05
-2.51417e-05
4.03842e-05
-1.56784e-05
3.78803e-05
-4.46042e-06
3.08885e-05
1.41602e-05
1.4064e-05
2.54436e-05
1.9944e-05
-2.09316e-05
6.28186e-05
-2.8773e-05
4.94734e-05
-2.57025e-05
5.73083e-06
-2.05332e-05
-1.84157e-05
-1.10874e-05
-4.01962e-05
-7.42852e-06
-3.36481e-05
-3.92624e-05
4.95552e-05
-9.88921e-05
0.000116899
-6.92976e-05
5.82712e-05
-4.52171e-05
-1.94729e-05
-2.35739e-05
-8.41555e-05
-8.14506e-06
-9.2014e-05
6.19251e-06
-5.44865e-05
1.73157e-05
-3.62497e-05
2.68446e-05
-2.51966e-05
3.74138e-05
-1.50145e-05
3.5561e-05
1.33952e-05
1.48696e-05
4.58559e-05
3.37488e-05
-1.30186e-05
7.60807e-05
-1.38399e-05
5.15997e-05
-1.11814e-05
3.60878e-06
-6.40802e-06
-2.31477e-05
-3.76726e-06
-4.21006e-05
-1.24063e-05
-2.5055e-05
-5.88527e-05
9.41771e-05
-9.59696e-05
0.000164558
-6.62061e-05
4.41417e-05
-4.66281e-05
-4.34143e-05
-3.14332e-05
-0.000122409
-1.93898e-05
-0.000104208
-7.21851e-06
-6.65987e-05
3.39056e-06
-4.68432e-05
1.68708e-05
-3.86616e-05
2.62985e-05
-2.44275e-05
3.13016e-05
8.417e-06
1.45998e-05
6.34365e-05
5.75434e-05
-3.16375e-06
7.92733e-05
-1.08847e-06
5.09099e-05
1.96175e-06
5.04397e-07
5.96005e-06
-2.7206e-05
2.21299e-06
-3.8727e-05
-2.04409e-05
-2.45089e-06
-7.51959e-05
0.000147618
-8.43352e-05
0.000185659
-6.58941e-05
3.10998e-05
-5.12026e-05
-5.56631e-05
-4.16128e-05
-0.000132055
-3.08713e-05
-0.000114891
-2.3177e-05
-4.73753e-05
-1.5227e-05
-4.66619e-05
-1.00971e-06
-5.28304e-05
1.29585e-05
-3.83708e-05
2.27326e-05
-1.36892e-06
1.87508e-05
6.81832e-05
7.74096e-05
7.23743e-06
7.20606e-05
1.3384e-05
4.47901e-05
1.7231e-05
-3.88801e-06
2.02998e-05
-3.19501e-05
5.22881e-06
-2.35634e-05
-3.27505e-05
3.55139e-05
-9.18542e-05
0.000206939
-8.64987e-05
0.000194827
-4.84722e-05
1.60762e-05
-5.10201e-05
-8.73708e-05
-4.64287e-05
-0.000133863
-1.9253e-05
-5.39264e-05
-1.38225e-05
-1.61637e-05
-2.84821e-05
-1.53599e-05
-2.94182e-05
-3.60044e-05
-1.5477e-05
-4.27723e-05
1.95372e-06
-1.4643e-05
1.44242e-05
5.68303e-05
9.24685e-05
1.24082e-05
5.96769e-05
1.80441e-05
2.62709e-05
2.7772e-05
-1.40338e-05
2.38613e-05
-2.42019e-05
3.75447e-06
2.37618e-07
-4.57285e-05
8.5028e-05
-0.000100216
0.00026149
-7.14557e-05
0.000173277
-6.31823e-05
7.56825e-06
-5.86292e-05
-7.72642e-05
-3.01035e-05
-0.000135193
-1.75002e-05
-2.20197e-05
-1.8383e-05
-1.57751e-05
-2.04076e-05
-1.387e-05
-2.72825e-05
-1.57876e-05
-1.95145e-05
-2.16489e-05
-1.77127e-05
-1.82171e-05
-8.89572e-07
6.18496e-06
4.84485e-05
1.41347e-05
4.08364e-05
2.68688e-05
1.33309e-05
3.06883e-05
-2.28888e-05
1.75135e-05
-8.23545e-06
-4.40533e-06
2.30951e-05
-5.8817e-05
0.000139522
-0.000101312
0.000304169
-3.66895e-05
0.000113589
-4.73203e-05
2.99681e-07
-5.57526e-05
-6.97471e-05
-1.93291e-05
-9.41481e-05
-2.21667e-05
-1.97269e-05
-2.21336e-05
-1.63423e-05
-2.16632e-05
-1.48751e-05
-2.28512e-05
-1.51348e-05
-1.96113e-05
-2.55216e-05
-1.95376e-05
-1.94165e-05
-1.79088e-05
-5.61904e-06
3.39345e-06
5.20434e-06
5.20423e-06
3.45415e-06
1.01419e-05
-2.31574e-06
1.09082e-05
-1.10218e-05
1.15241e-05
-2.12329e-05
1.08772e-05
-3.38623e-05
1.18308e-05
-4.25481e-05
1.35589e-05
-4.69142e-05
1.6549e-05
-5.32941e-05
1.75866e-05
-6.11906e-05
1.62619e-05
-6.59521e-05
7.70584e-06
-6.22129e-05
-9.31194e-06
-4.89048e-05
-2.94562e-05
-3.28046e-05
-3.89574e-05
-2.01034e-05
-3.65585e-05
-1.21892e-05
-2.82615e-05
-5.95716e-06
-2.35067e-05
5.66971e-07
-2.22007e-05
6.33966e-06
-2.10925e-05
9.82006e-06
-1.93425e-05
1.18641e-05
-1.601e-05
1.2348e-05
-1.34607e-05
-8.69887e-06
1.80628e-05
-7.31145e-06
0
-9.47796e-06
0
-1.33536e-05
0
-2.09238e-05
0
-3.17682e-05
3.13123e-07
-3.96861e-05
1.31745e-06
-4.29972e-05
1.35798e-06
-4.79315e-05
1.8527e-06
-5.8584e-05
5.94836e-06
-7.05668e-05
1.28338e-05
-7.99935e-05
1.16287e-05
-8.58693e-05
9.00766e-08
-8.32017e-05
-3.01542e-05
-6.68398e-05
-5.69256e-05
-4.7333e-05
-4.79711e-05
-3.37846e-05
-2.75154e-05
-2.46245e-05
-1.72819e-05
-1.396e-05
-1.48767e-05
-3.63372e-06
-1.2295e-05
3.35479e-06
-9.42025e-06
7.36787e-06
-6.81132e-06
1.07254e-05
-5.85026e-06
-7.0043e-06
1.90956e-05
-1.93742e-06
0
-3.1969e-06
0
-4.5128e-06
0
-6.20393e-06
0
-9.06729e-06
1.00763e-07
-1.40941e-05
1.23347e-08
-2.82061e-05
-1.29049e-06
-5.95442e-05
-3.80158e-06
-0.000101057
8.4685e-07
-0.000121595
4.14972e-06
-0.000121344
7.24676e-06
-0.000134731
-6.70313e-06
-0.000195042
-6.39912e-05
-0.000153661
-0.000108756
-5.57456e-05
-5.08935e-05
-1.98652e-05
-7.23349e-06
-9.55424e-06
-3.51439e-07
-3.81408e-06
-6.91225e-08
-1.40777e-06
-8.08499e-08
-6.80738e-07
-2.83011e-07
-3.50754e-07
-6.25791e-07
7.86602e-07
-1.08474e-06
-2.06593e-06
3.7574e-06
-1.80187e-07
3.11277e-08
-3.09639e-07
1.01004e-08
-4.16766e-07
1.70939e-08
-5.17373e-07
1.55661e-08
-1.13916e-06
0
-4.63608e-06
4.01426e-08
-4.52494e-05
-8.7239e-07
-6.67725e-05
-1.41343e-06
-5.2694e-05
0
-5.67076e-05
0
-0.000166986
2.3344e-06
-0.000226435
-1.5901e-05
-0.000234504
-6.19125e-05
-0.000176609
-0.000125319
-2.74724e-05
-7.50295e-05
-3.34776e-07
-1.62263e-05
-1.40756e-07
-5.60496e-07
-1.49064e-07
-7.58572e-08
-2.45393e-07
1.08153e-09
-5.52854e-07
4.96874e-09
-5.07165e-07
-7.66515e-07
-1.04778e-06
-1.06106e-06
-3.2188e-06
-2.28913e-07
-2.90595e-08
1.47884e-08
-3.74658e-08
5.35275e-09
-3.43478e-08
4.78967e-09
-5.73819e-08
8.32424e-10
-8.7611e-07
2.5126e-08
-3.80458e-06
1.27752e-07
-5.00777e-06
0
-5.93199e-06
-4.98084e-08
-4.88048e-06
-9.1528e-08
-4.7437e-06
-5.70192e-08
-6.66419e-06
-1.97128e-07
-2.30792e-05
-1.55089e-06
-7.53313e-05
-8.81758e-06
-0.000115654
-3.93955e-05
-5.15672e-05
-4.39055e-05
-9.6632e-06
-3.43033e-05
-5.49688e-07
-9.69925e-06
-6.44033e-07
5.29021e-09
-7.21338e-07
5.89196e-08
-8.05615e-07
-5.30862e-09
-8.07455e-06
-9.67674e-07
-1.57879e-05
-1.89783e-05
-4.9086e-05
-3.79239e-06
-5.08639e-09
5.88008e-09
-5.71587e-09
1.50315e-09
-4.755e-09
1.36231e-09
-1.38033e-08
8.15155e-10
-1.01168e-07
4.88206e-10
-1.57598e-07
5.62678e-10
-1.89944e-07
0
-1.17675e-07
0
-3.93218e-08
0
-5.2808e-08
-2.38991e-09
-2.45475e-07
-1.08262e-08
-1.71156e-06
-1.44505e-07
-9.552e-06
-1.23731e-06
-5.77008e-05
-5.03823e-06
-7.69876e-05
-4.52888e-05
-5.75404e-05
-4.38682e-05
-6.83911e-06
-2.63413e-05
-4.80191e-07
-6.37791e-06
-4.73216e-07
-1.23198e-07
-5.40847e-07
-8.18201e-08
-1.49708e-06
-5.72949e-07
-5.59162e-05
-1.98972e-05
-6.37318e-05
-3.9619e-05
-5.14653e-10
2.32637e-09
-6.52886e-10
6.37336e-10
-6.03767e-10
4.46153e-10
-1.05713e-09
2.25012e-10
-1.97133e-09
1.60498e-10
-2.06917e-09
7.38031e-11
-4.38628e-09
0
-8.91359e-09
0
-9.81304e-09
0
-2.36107e-09
5.88443e-11
-1.282e-08
-6.24502e-10
-1.46484e-07
-1.25099e-08
-1.2739e-06
-1.32262e-07
-5.70649e-06
-7.12724e-07
-6.05994e-05
-6.01007e-06
-7.10149e-05
-2.30116e-05
-4.73217e-05
-3.51694e-05
-1.72846e-05
-2.54935e-05
-2.80881e-06
-1.67484e-05
-6.93708e-07
-2.98651e-06
-3.08595e-06
-1.63316e-06
-5.23392e-05
-2.04204e-05
-5.41351e-05
-5.99876e-05
1.76354e-10
1.10937e-09
-2.82568e-14
7.88123e-10
-1.44459e-11
2.5507e-10
-1.18023e-11
5.05333e-11
-4.14847e-12
2.12975e-11
3.8384e-13
5.11933e-12
-1.02202e-11
6.52734e-13
-8.53303e-11
5.01596e-12
-2.7024e-10
0
-2.58569e-10
0
-3.60464e-11
0
-1.19032e-08
-4.26935e-10
-1.37277e-07
-8.6077e-09
-7.85863e-07
-7.32061e-08
-6.24025e-06
-5.69178e-07
-3.75993e-05
-2.80861e-06
-6.58232e-05
-1.70748e-05
-6.65583e-05
-2.76957e-05
-4.75113e-05
-3.73498e-05
-2.05988e-05
-3.07953e-05
-1.2492e-05
-3.12487e-05
-3.87205e-05
-4.03788e-05
-4.18138e-05
-4.90472e-05
1.72759e-10
3.53956e-10
5.30662e-11
5.69547e-10
2.90638e-12
1.64433e-10
6.44162e-12
2.30569e-11
5.65324e-12
6.22728e-12
4.63859e-12
7.90117e-13
5.04818e-12
1.0685e-12
1.00575e-11
5.3183e-12
1.72016e-11
0
-5.25608e-12
0
-1.58755e-11
3.7948e-13
-1.20204e-11
0
-8.39411e-09
-1.09909e-10
-7.89312e-08
-2.23157e-09
-6.25202e-07
-2.23908e-08
-3.24952e-06
-1.31189e-07
-1.94744e-05
-8.06126e-07
-5.06965e-05
-4.16241e-06
-6.79305e-05
-2.05741e-05
-5.74592e-05
-2.32823e-05
-4.75746e-05
-2.07424e-05
-4.65313e-05
-1.29644e-05
-6.18281e-06
-4.82482e-05
1.02734e-10
9.36718e-11
7.29503e-11
1.14469e-10
6.39941e-12
2.02768e-10
9.03715e-13
2.46311e-11
8.43058e-13
1.38616e-12
7.08251e-13
3.51597e-13
1.18718e-12
4.41702e-13
4.81305e-12
1.752e-12
1.96465e-11
3.12271e-12
1.36226e-11
0
4.96014e-12
0
-9.40916e-12
1.25963e-12
-6.94083e-11
7.91723e-12
-2.29735e-09
2.88961e-14
-2.27468e-08
-8.22201e-12
-1.53273e-07
-4.00696e-10
-9.16641e-07
-1.24843e-09
-5.0756e-06
-2.68696e-09
-2.5642e-05
-3.54435e-09
-3.82887e-05
-9.26977e-09
-3.26852e-05
-1.48562e-08
-2.67248e-06
-2.7363e-08
-4.54087e-08
-1.88329e-06
3.72075e-11
1.97872e-11
4.68175e-11
4.15092e-11
2.23063e-11
7.52885e-11
1.49969e-12
8.11863e-11
2.47487e-13
2.34687e-12
1.91374e-13
3.04868e-13
2.67344e-13
1.62098e-13
1.58575e-12
2.72486e-13
1.46726e-11
7.2792e-12
8.23428e-12
2.51509e-12
2.87285e-12
2.22453e-13
5.37293e-12
1.77381e-12
2.96559e-12
0
-8.58661e-12
4.97031e-12
-3.20066e-11
1.27704e-12
-2.48874e-10
-1.44173e-10
-7.41013e-10
-7.45823e-10
-1.44336e-09
-1.95484e-09
-2.87426e-09
-1.89771e-09
-7.15529e-09
-4.03381e-09
-1.50045e-08
-4.78138e-09
-3.27589e-08
-5.81869e-09
-1.05824e-08
-6.33458e-08
1.08013e-11
2.61194e-12
3.34936e-11
9.4422e-12
4.64874e-11
2.30176e-11
8.24165e-12
4.61986e-11
7.60381e-13
9.30549e-12
3.71806e-13
4.89592e-13
1.61635e-13
1.36915e-13
1.29335e-13
1.39092e-13
6.43741e-12
6.46705e-13
2.2071e-12
1.2066e-13
1.16124e-12
4.30328e-13
3.49842e-12
3.72431e-12
8.22506e-12
0
3.20347e-12
1.12582e-12
0
6.6467e-12
-6.35088e-10
1.04278e-10
-2.30417e-09
-1.13681e-09
-3.15806e-09
-1.38094e-09
-3.42053e-09
0
-1.01523e-08
-1.59495e-09
-1.47604e-08
-8.1468e-09
-2.0383e-08
-2.50964e-09
-1.34214e-08
-2.28352e-08
1.3597e-12
2.33479e-13
6.25224e-12
1.69784e-12
1.25787e-11
2.57206e-12
1.22353e-11
4.95844e-13
6.97278e-13
5.3136e-12
3.8829e-13
9.80889e-13
1.25917e-13
1.51467e-13
1.99272e-13
2.01102e-13
3.56789e-13
0
4.36594e-13
2.87968e-14
2.08432e-12
2.47348e-13
7.81934e-12
2.24141e-11
3.64642e-12
1.29114e-11
1.43382e-12
1.79522e-12
5.84037e-12
9.58385e-13
0
1.35997e-10
-1.41093e-08
3.55098e-09
-1.84353e-08
4.58274e-09
-8.62509e-09
-7.49304e-11
-1.29522e-08
-6.11647e-11
-6.71329e-08
-3.00807e-09
-1.31118e-07
-3.76527e-08
-1.12252e-07
-8.39184e-08
9.38327e-14
2.69032e-14
9.59014e-13
3.30348e-13
1.79204e-12
3.77306e-13
1.20675e-12
1.01405e-13
1.07983e-12
2.96797e-14
2.21609e-13
3.92569e-13
9.53516e-14
1.04117e-13
1.38653e-13
1.69769e-13
4.17785e-14
2.95105e-14
5.92058e-14
1.14613e-14
3.90654e-13
4.20377e-14
1.38245e-11
1.75462e-11
9.86659e-12
1.85814e-11
1.76131e-12
7.33773e-12
8.77008e-13
7.00879e-13
1.24882e-10
1.1282e-11
-8.32695e-10
1.61961e-09
-3.19486e-08
1.81317e-08
-7.12945e-09
1.92634e-08
-1.27743e-08
3.49467e-09
-2.4106e-08
2.24625e-09
-1.66117e-07
-7.31097e-09
-5.97166e-08
-2.75334e-07
2.56103e-15
2.38717e-14
1.18073e-13
8.94369e-14
2.56463e-13
6.366e-14
1.53e-13
4.87984e-14
8.45015e-14
2.26205e-14
9.04062e-14
3.41227e-14
4.19349e-14
3.002e-14
5.29469e-14
3.39379e-14
1.18813e-14
1.80376e-14
1.56677e-14
8.76001e-15
5.63926e-14
1.24697e-14
1.18442e-11
1.02507e-11
1.33464e-11
1.87913e-11
1.32076e-12
6.48355e-12
7.81062e-13
4.88164e-13
1.08163e-11
1.10456e-12
1.46845e-09
1.61177e-10
-4.93532e-10
1.04157e-08
-1.88226e-08
4.93849e-08
-1.1569e-09
2.16231e-08
-1.94594e-09
1.86196e-09
-8.7116e-09
-1.20397e-09
-2.84269e-08
-8.69097e-08
-1.78257e-16
1.18837e-14
1.63654e-14
3.31054e-14
3.46243e-14
3.07675e-14
2.66157e-14
2.33944e-14
1.5084e-14
1.18171e-14
1.21002e-14
6.20016e-15
9.2973e-15
5.44644e-15
9.34644e-15
4.86564e-15
7.49119e-15
7.21564e-15
1.02237e-14
7.82132e-15
1.56229e-14
8.78981e-15
1.12131e-11
1.86335e-12
6.75463e-12
4.47559e-12
2.36287e-13
1.75456e-12
3.07878e-13
2.31687e-13
1.23595e-12
1.26343e-13
1.47231e-10
1.49898e-11
9.66131e-09
8.9535e-10
1.50116e-08
2.49977e-08
2.13807e-08
4.58423e-08
1.37152e-08
1.28955e-08
7.50552e-09
-2.56996e-08
-8.44666e-08
1.52573e-08
1.18382e-16
3.32179e-15
3.12954e-15
8.72676e-15
6.25734e-15
8.88155e-15
5.05994e-15
5.9057e-15
2.5445e-15
2.79403e-15
1.90798e-15
1.24044e-15
1.87716e-15
1.22921e-15
2.1634e-15
1.42554e-15
4.27704e-15
3.38157e-15
8.96259e-15
7.34763e-15
9.81982e-14
4.91984e-14
8.76397e-13
3.41748e-14
9.33453e-13
1.00605e-13
4.96266e-13
9.89204e-15
1.48514e-13
1.59641e-13
2.24517e-13
2.6462e-14
1.40339e-11
1.13398e-12
8.52422e-10
5.80145e-11
2.49972e-08
8.48274e-10
8.29387e-08
1.51947e-08
8.21505e-08
2.62834e-08
7.74264e-08
-9.58226e-09
-7.27171e-08
7.67248e-08
8.00873e-17
6.81346e-16
5.78671e-16
1.38539e-15
9.9609e-16
1.22405e-15
7.48371e-16
8.10988e-16
3.99758e-16
3.9578e-16
3.56235e-16
2.3891e-16
4.51591e-16
3.09908e-16
7.53237e-16
4.93648e-16
2.48103e-15
1.64555e-15
1.04845e-14
8.60248e-15
6.18989e-14
5.78909e-14
9.38364e-14
5.68478e-14
1.19022e-13
6.4243e-14
8.47852e-14
5.92919e-14
6.64927e-14
4.58931e-14
5.35892e-14
1.60694e-14
1.08789e-12
9.70709e-14
5.46428e-11
4.47069e-12
8.67731e-10
3.61333e-11
1.38957e-08
3.62015e-10
4.12174e-08
3.24695e-11
1.46022e-07
-1.29234e-09
-3.97487e-09
1.60719e-07
2.02926e-17
1.11696e-16
8.90929e-17
1.79934e-16
1.24674e-16
1.42703e-16
9.38331e-17
9.49303e-17
6.03615e-17
4.98307e-17
6.29976e-17
4.4739e-17
1.18873e-16
7.39083e-17
2.54427e-16
1.49275e-16
1.3362e-15
7.91543e-16
1.07329e-14
8.27476e-15
5.15819e-14
4.15745e-14
6.97375e-14
6.95707e-14
7.39362e-14
7.12215e-14
5.74198e-14
5.96115e-14
2.94295e-14
3.28261e-14
1.71957e-14
1.25387e-14
1.02e-13
6.96848e-15
4.41605e-12
1.83257e-13
4.08859e-11
1.67159e-12
3.95478e-10
1.44932e-11
4.39375e-10
0
4.53706e-09
-1.55989e-11
-2.55614e-12
5.66039e-10
3.45375e-18
1.59763e-17
1.19637e-17
2.17523e-17
1.3854e-17
1.57704e-17
1.08404e-17
1.04843e-17
8.78828e-18
6.0108e-18
1.12798e-17
7.30704e-18
2.80096e-17
1.50762e-17
7.63387e-17
4.00169e-17
6.49567e-16
3.38129e-16
8.36593e-15
5.59026e-15
3.52461e-14
2.14258e-14
5.99957e-14
5.45145e-14
6.40336e-14
5.94909e-14
5.0533e-14
4.91801e-14
2.34626e-14
2.73268e-14
9.92506e-15
1.05117e-14
9.33783e-15
3.26426e-15
1.90469e-13
3.00756e-15
1.99149e-12
5.02507e-14
1.71999e-11
2.85861e-13
1.77463e-11
0
2.39375e-12
-9.99409e-14
-2.02955e-13
5.22158e-13
4.8809e-19
2.0908e-18
1.43774e-18
2.4683e-18
1.4412e-18
1.63996e-18
1.17534e-18
1.08628e-18
1.08829e-18
6.85675e-19
1.83477e-18
9.69862e-19
5.61291e-18
2.50747e-18
2.19364e-17
1.07465e-17
2.4842e-16
1.08906e-16
4.02288e-15
1.89874e-15
1.63976e-14
7.28409e-15
3.77732e-14
2.29381e-14
4.28571e-14
3.15329e-14
3.72868e-14
2.81869e-14
1.96529e-14
1.82427e-14
7.37961e-15
8.16163e-15
3.94091e-15
2.47664e-15
5.17095e-15
9.28956e-16
5.82025e-14
5.29305e-16
3.6962e-13
4.93354e-15
3.00137e-13
0
2.76281e-13
-5.26434e-15
-8.35725e-15
3.71353e-13
6.2339e-20
2.53189e-19
1.58592e-19
2.60087e-19
1.39896e-19
1.5816e-19
1.19363e-19
1.04486e-19
1.1872e-19
7.231e-20
2.44008e-19
1.08582e-19
9.64063e-19
3.64858e-19
6.348e-18
2.99386e-18
6.71454e-17
2.37822e-17
1.0035e-15
2.83458e-16
4.31789e-15
1.20241e-15
1.28154e-14
4.17952e-15
1.68046e-14
7.87737e-15
1.7372e-14
8.02798e-15
1.17377e-14
6.68972e-15
5.16633e-15
3.68632e-15
2.18801e-15
1.52922e-15
1.46173e-15
5.71962e-16
1.58022e-15
1.66947e-16
7.27305e-15
1.04697e-17
1.00928e-14
1.92644e-17
2.4271e-14
-1.29134e-16
-5.5371e-16
4.63171e-15
7.34333e-21
2.84701e-20
1.57714e-20
2.54883e-20
1.26735e-20
1.41454e-20
1.13589e-20
9.35008e-21
1.20282e-20
7.04025e-21
2.78851e-20
1.11247e-20
1.49337e-19
5.03992e-20
1.75207e-18
7.76692e-19
1.30499e-17
3.93206e-18
1.32313e-16
2.44224e-17
5.93481e-16
1.01758e-16
2.00344e-15
3.45802e-16
3.51447e-15
7.79128e-16
3.94479e-15
1.02935e-15
3.59231e-15
1.01274e-15
1.99045e-15
7.16035e-16
1.00646e-15
3.81196e-16
5.92922e-16
1.97093e-16
3.09991e-16
8.7239e-17
1.98891e-16
1.28234e-17
3.19112e-16
3.21563e-18
8.34336e-16
-4.23505e-18
-1.75149e-17
1.326e-15
8.00625e-22
2.98537e-21
1.43206e-21
2.3344e-21
1.07307e-21
1.17796e-21
1.01574e-21
7.82004e-22
1.13351e-21
6.37742e-22
2.93017e-21
1.08112e-21
2.13673e-20
6.56205e-21
4.01384e-19
1.53333e-19
2.05898e-18
5.77554e-19
1.24864e-17
2.06768e-18
5.27366e-17
7.22868e-18
1.75308e-16
2.15291e-17
3.60309e-16
4.65146e-17
4.60839e-16
6.89651e-17
4.95614e-16
7.18977e-17
3.50615e-16
5.91636e-17
2.05153e-16
3.50867e-17
1.43646e-16
2.14515e-17
8.89884e-17
1.25801e-17
4.11923e-17
5.30769e-18
3.4731e-17
6.81022e-19
3.43252e-17
-3.09473e-19
-1.60644e-18
5.00226e-17
8.12082e-23
2.9332e-22
1.15862e-22
2.00365e-22
8.51546e-23
9.18002e-23
8.5575e-23
6.13542e-23
9.95945e-23
5.39801e-23
2.88198e-22
9.91566e-23
2.73641e-21
7.55498e-22
6.65011e-20
1.95578e-20
2.81543e-19
7.27147e-20
1.14512e-18
2.01429e-19
4.2107e-18
5.78782e-19
1.27905e-17
1.50991e-18
2.59951e-17
2.90372e-18
3.48135e-17
4.00607e-18
3.74692e-17
3.83358e-18
3.09291e-17
3.11367e-18
1.82565e-17
1.75649e-18
1.34847e-17
9.19357e-19
1.04947e-17
5.73322e-19
6.55011e-18
3.44993e-19
3.71878e-18
7.8617e-20
3.4586e-18
-1.71761e-20
-1.56284e-19
5.88406e-18
7.71199e-24
2.71217e-23
8.86404e-24
1.61634e-23
6.35146e-24
6.72109e-24
6.80074e-24
4.5289e-24
8.19062e-24
4.28305e-24
2.64325e-23
8.51649e-24
3.01543e-22
7.43694e-23
7.62899e-21
1.69389e-21
3.23276e-20
7.23272e-21
1.07411e-19
1.95901e-20
3.41861e-19
4.95442e-20
9.44272e-19
1.17473e-19
1.79499e-18
2.07987e-19
2.22046e-18
2.56488e-19
2.31544e-18
2.18633e-19
1.88876e-18
1.61842e-19
1.03065e-18
8.50293e-20
6.16356e-19
3.19864e-20
4.95143e-19
1.4802e-20
4.05836e-19
8.70872e-21
3.19246e-19
4.18883e-21
3.10265e-19
-3.1711e-22
-1.44432e-20
7.39656e-19
6.89288e-25
2.36879e-24
6.38584e-25
1.23013e-24
4.46051e-25
4.63332e-25
5.01992e-25
3.15394e-25
6.41325e-25
3.19678e-25
2.25632e-24
6.8577e-25
2.86407e-23
6.4458e-24
6.68289e-22
1.25448e-22
3.06718e-21
5.9453e-22
9.67412e-21
1.71246e-21
2.77244e-20
4.10684e-21
7.08247e-20
9.16323e-21
1.24773e-19
1.54985e-20
1.45334e-19
1.68788e-20
1.36536e-19
1.36376e-20
1.02547e-19
9.04054e-21
5.29228e-20
4.44538e-21
2.33824e-20
1.46323e-21
1.55845e-20
4.5696e-22
1.39862e-20
2.20887e-22
1.53895e-20
1.70004e-22
2.68705e-20
7.10474e-23
-3.63058e-21
1.0829e-19
5.82208e-26
1.96027e-25
4.33259e-26
8.86128e-26
2.95645e-26
3.01679e-26
3.51923e-26
2.07879e-26
4.69324e-26
2.25111e-26
1.79799e-25
5.20087e-26
2.43058e-24
5.16205e-25
5.17185e-23
9.17383e-24
2.5153e-22
4.46714e-23
7.98608e-22
1.34129e-22
2.15509e-21
3.15529e-22
5.20586e-21
6.78884e-22
8.46775e-21
1.11609e-21
9.32013e-21
1.08536e-21
8.06888e-21
8.44596e-22
5.45544e-21
5.13608e-22
2.62939e-21
2.32622e-22
9.6981e-22
7.33211e-23
4.99469e-22
1.86857e-23
4.57759e-22
9.10482e-24
9.2571e-22
2.26671e-23
5.76158e-21
7.00283e-23
-1.45314e-21
4.44243e-20
4.6645e-27
1.54112e-26
2.77299e-27
6.06233e-27
1.85437e-27
1.86102e-27
2.28524e-27
1.30066e-27
3.30421e-27
1.50136e-27
1.34321e-26
3.73067e-27
1.90419e-25
3.91122e-26
3.7834e-24
6.61487e-25
1.88195e-23
3.21318e-24
6.01676e-23
9.70462e-24
1.56621e-22
2.24347e-23
3.63589e-22
4.70738e-23
5.41577e-22
7.48264e-23
5.75854e-22
6.72407e-23
4.63684e-22
5.01605e-23
2.82546e-22
2.83162e-23
1.24657e-22
1.17281e-23
4.1139e-23
3.47053e-24
2.16359e-23
8.18271e-25
2.10568e-23
7.58276e-25
2.179e-22
9.49727e-24
2.72887e-21
6.30165e-23
-4.56522e-22
2.55522e-20
3.55843e-28
1.15358e-27
1.67836e-28
3.95321e-28
1.10327e-28
1.09113e-28
1.37541e-28
7.74464e-29
2.22311e-28
9.53087e-29
9.44082e-28
2.54056e-28
1.39724e-26
2.81277e-27
2.6322e-25
4.56696e-26
1.31751e-24
2.21077e-25
4.19327e-24
6.62125e-25
1.06035e-23
1.49695e-24
2.37832e-23
3.07226e-24
3.27716e-23
4.6318e-24
3.39274e-23
4.01776e-24
2.52814e-23
2.83225e-24
1.4025e-23
1.49145e-24
5.60681e-24
5.67344e-25
1.69939e-24
1.52306e-25
1.0807e-24
3.94846e-26
2.43628e-24
1.25733e-25
8.18429e-23
4.39055e-24
1.25021e-21
3.72502e-23
-5.40631e-23
1.21325e-20
2.59592e-29
8.23553e-29
9.63689e-30
2.4671e-29
6.23878e-30
6.1005e-30
7.85208e-30
4.40113e-30
1.41035e-29
5.78163e-30
6.26577e-29
1.64916e-29
9.65096e-28
1.92144e-28
1.7343e-26
2.99662e-27
8.68882e-26
1.44757e-26
2.73794e-25
4.29769e-26
6.73841e-25
9.49829e-26
1.45995e-24
1.90991e-25
1.93439e-24
2.69975e-25
1.86578e-24
2.29056e-25
1.30174e-24
1.52331e-25
6.63712e-25
7.5082e-26
2.38852e-25
2.63082e-26
6.98653e-26
6.21961e-27
5.00179e-26
2.37095e-27
5.12617e-25
2.90793e-26
2.4512e-23
1.22523e-24
3.93837e-22
1.14222e-23
1.57379e-23
3.85356e-21
1.81845e-30
5.61352e-30
5.27251e-31
1.48019e-30
3.36035e-31
3.26443e-31
4.26241e-31
2.39499e-31
8.47881e-31
3.36253e-31
3.94248e-30
1.0248e-30
6.30045e-29
1.2522e-29
1.08366e-27
1.87991e-28
5.41899e-27
9.04988e-28
1.68918e-26
2.66757e-27
4.0547e-26
5.77604e-27
8.47826e-26
1.14091e-26
1.07586e-25
1.50607e-26
9.78641e-26
1.24112e-26
6.37422e-26
7.8412e-27
2.98625e-26
3.61626e-27
9.59564e-27
1.16257e-27
3.26069e-27
2.43473e-28
2.93934e-27
1.92013e-28
9.60719e-26
5.23768e-27
4.6911e-24
1.87912e-25
7.93878e-23
2.08886e-24
7.58166e-24
8.33546e-22
1.22626e-31
3.65497e-31
2.76538e-32
8.57815e-32
1.72845e-32
1.679e-32
2.20561e-32
1.25222e-32
4.8502e-32
1.88191e-32
2.36079e-31
6.12294e-32
3.90647e-30
7.83291e-31
6.45193e-29
1.13589e-29
3.21274e-28
5.43947e-29
9.90685e-28
1.59193e-28
2.32454e-27
3.38306e-28
4.68109e-27
6.57798e-28
5.67863e-27
8.06683e-28
4.88082e-27
6.44735e-28
2.96861e-27
3.86833e-28
1.27507e-27
1.66693e-28
3.66714e-28
4.85255e-29
1.88556e-28
1.05478e-29
2.56116e-28
2.01792e-29
1.25016e-26
5.59033e-28
6.00942e-25
2.01237e-26
1.22276e-23
3.24991e-25
1.87295e-24
1.45395e-22
7.95695e-33
2.27327e-32
1.40018e-33
4.82314e-33
8.5164e-34
8.341e-34
1.09066e-33
6.31414e-34
2.64887e-33
1.01764e-33
1.35013e-32
3.53424e-33
2.31158e-31
4.73314e-32
3.6779e-30
6.65241e-31
1.8203e-29
3.16542e-30
5.55102e-29
9.19137e-30
1.27517e-28
1.91867e-29
2.46154e-28
3.6727e-29
2.85539e-28
4.16261e-29
2.32012e-28
3.22562e-29
1.31488e-28
1.8335e-29
5.14867e-29
7.34993e-30
1.38499e-29
1.89901e-30
8.45718e-30
5.96079e-31
3.48587e-29
2.66345e-30
1.12879e-27
4.58339e-29
5.96111e-26
1.89331e-27
1.70397e-24
4.97065e-26
3.81613e-25
2.27866e-23
4.95305e-34
1.35047e-33
6.88833e-35
2.64058e-34
4.03147e-35
4.02397e-35
5.16501e-35
3.08352e-35
1.38484e-34
5.34119e-35
7.39678e-34
1.98171e-34
1.31088e-32
2.78193e-33
2.01533e-31
3.80177e-32
9.90057e-31
1.79641e-31
2.98398e-30
5.17155e-31
6.71545e-30
1.06096e-30
1.23162e-29
1.99342e-30
1.3705e-29
2.08014e-30
1.05139e-29
1.56016e-30
5.5242e-30
8.36263e-31
1.95098e-30
3.09074e-31
5.68455e-31
7.01076e-32
4.60149e-31
4.57122e-32
4.67471e-30
4.19642e-31
9.44474e-29
5.2205e-30
5.24719e-27
2.02173e-28
2.22633e-25
7.73501e-27
7.37412e-26
3.33361e-24
2.9445e-35
7.66319e-35
3.30949e-36
1.4114e-35
1.83771e-36
1.89617e-36
2.34627e-36
1.46565e-36
6.94425e-36
2.73569e-36
3.89166e-35
1.0865e-35
7.14935e-34
1.60315e-34
1.06498e-32
2.13713e-33
5.18725e-32
1.00249e-32
1.54389e-31
2.85948e-32
3.40257e-31
5.76781e-32
5.84133e-31
1.05544e-31
6.28433e-31
1.01498e-31
4.52838e-31
7.32509e-32
2.18543e-31
3.67277e-32
6.88023e-32
1.23306e-32
2.98381e-32
2.64224e-33
3.51683e-32
4.66552e-33
6.86989e-31
7.99327e-32
1.18046e-29
1.12654e-30
5.69181e-28
3.60002e-29
3.04562e-26
1.44552e-27
1.52852e-26
4.91805e-25
1.66342e-36
4.15596e-36
1.55864e-37
7.37714e-37
8.08171e-38
8.78013e-38
1.02368e-37
6.81933e-38
3.3449e-37
1.37614e-37
1.97039e-36
5.87007e-37
3.76131e-35
9.141e-36
5.44276e-34
1.19272e-34
2.62553e-33
5.55329e-34
7.70764e-33
1.56841e-33
1.66023e-32
3.11092e-33
2.61447e-32
5.46058e-33
2.75902e-32
4.90193e-33
1.83938e-32
3.34596e-33
8.05454e-33
1.55411e-33
2.28653e-33
4.64863e-34
1.2407e-33
1.18184e-34
4.57785e-33
6.38882e-34
1.20447e-31
1.81364e-32
2.33353e-30
3.30317e-31
9.53302e-29
9.46553e-30
4.8298e-27
3.19341e-28
3.22142e-27
7.44221e-26
8.88238e-38
2.1572e-37
7.20008e-39
3.7741e-38
3.43383e-39
4.01859e-39
4.29466e-39
3.12569e-39
1.54979e-38
6.84963e-39
9.6204e-38
3.15296e-38
1.91444e-36
5.20766e-37
2.69762e-35
6.67346e-36
1.28721e-34
3.08384e-35
3.72097e-34
8.61604e-35
7.79884e-34
1.6792e-34
1.15307e-33
2.7736e-34
1.13021e-33
2.36811e-34
6.93819e-34
1.4905e-34
2.7436e-34
6.35489e-35
7.44364e-35
1.66163e-35
4.91811e-35
6.77174e-36
6.47901e-34
1.07741e-34
2.20081e-32
3.88904e-33
5.088e-31
8.70245e-32
1.84754e-29
2.33938e-30
7.63247e-28
6.25861e-29
5.56007e-28
1.00858e-26
4.46319e-39
1.07447e-38
3.25864e-40
1.8908e-39
1.41194e-40
1.82311e-40
1.73529e-40
1.41704e-40
6.92114e-40
3.40267e-40
4.54238e-39
1.69974e-39
9.45785e-38
2.99282e-38
1.30065e-36
3.77861e-37
6.1305e-36
1.73248e-36