/*--------------------------------*- C++ -*----------------------------------*\
  =========                 |
  \\      /  F ield         | OpenFOAM: The Open Source CFD Toolbox
   \\    /   O peration     | Website:  https://openfoam.org
    \\  /    A nd           | Version:  13
     \\/     M anipulation  |
\*---------------------------------------------------------------------------*/
FoamFile
{
    format      ascii;
    class       volScalarField;
    location    "0.8";
    object      alpha.water;
}
// * * * * * * * * * * * * * * * * * * * * * * * * * * * * * * * * * * * * * //

dimensions      [];

internalField   nonuniform List<scalar> 
2268
(
1
1
1
1
1
1
1
1
1
1
1
1
1
1
0.999994
0.994093
0.962012
0.957739
0.996999
0.997011
0.995948
0.995045
0.998078
1
1
1
1
1
1
1
1
1
1
1
1
1
1
0.999996
0.995062
0.958326
0.952088
0.95675
0.966762
0.959595
0.975715
0.999948
1
1
1
1
1
1
1
1
1
1
1
1
1
1
1
0.999981
0.991596
0.956261
0.947923
0.947915
0.948158
0.983241
0.999948
1
1
1
1
1
1
1
1
1
1
1
1
1
1
1
1
0.999981
0.998126
0.990836
0.988736
0.986939
1
0.999948
1
1
1
1
1
1
0.999999
1
1
1
1
1
1
1
1
1
1
0.999999
1
1
1
1
1
1
1
1
1
1
1
0.999991
0.999958
0.999964
1
1
1
1
1
1
1
1
1
1
1
1
1
0.99999
1
1
1
1
1
1
1
0.999451
0.99993
1
1
1
1
1
1
1
1
1
1
1
1
1
0.999958
1
1
1
1
1
0.996376
0.982239
0.999612
0.999999
0.999999
0.999999
0.999996
0.999993
0.999998
0.999998
0.999998
0.999999
0.999999
0.999999
0.999998
0.999998
0.999998
0.999949
0.986206
0.999455
0.994771
0.970688
0.968759
0.970918
0.954203
0.767773
0.777719
0.853965
0.824756
0.685413
0.685413
0.742434
0.775303
0.77261
0.821277
0.858648
0.855917
0.993241
0.999538
0.999527
0.999468
0.999245
0.999393
0.980676
0.769779
0.797215
0.798686
0.620809
0.700808
0.706305
0.778865
0.779007
0.546269
0.53885
0.556821
0.842825
0.996838
0.999538
0.981558
0.943587
0.988858
0.999396
0.983531
0.834961
0.737355
0.544747
0.546119
0.778298
0.778865
0.779008
0.779023
0.779008
0.644375
0.557774
0.783211
0.966128
0.957647
0.736153
0.73458
0.939967
0.999354
0.971944
0.911411
0.598795
0.541717
0.693194
0.777469
0.778299
0.778865
0.779008
0.779023
0.778947
0.562827
0.717157
0.986804
0.979915
0.732688
0.732657
0.930745
0.997481
0.974844
0.87587
0.503561
0.526614
0.756892
0.773167
0.700245
0.750892
0.778572
0.778947
0.778567
0.776329
0.774005
0.986885
0.986807
0.733744
0.82067
0.988092
0.996438
0.992633
0.82675
0.456748
0.633461
0.745176
0.506092
0.173734
0.279948
0.656942
0.754358
0.72507
0.774002
0.773205
0.986866
0.83622
0.735895
0.774725
0.92082
0.995674
0.994374
0.784828
0.428121
0.681618
0.690627
0.15435
0.153781
0.153711
0.161332
0.262715
0.241189
0.542422
0.726514
0.957308
0.838518
0.87122
0.613755
0.81631
0.994373
0.9924
0.676555
0.230221
0.598087
0.473143
0.153901
0.15371
0.153711
0.153712
0.154507
0.158803
0.199249
0.266011
0.727897
0.783904
0.777056
0.777019
0.787192
0.868099
0.965807
0.999999
0.999999
0.999999
0.999999
0.999923
0.99989
0.999133
0.999922
0.999934
0.999945
0.999941
0.999933
0.999926
0.99993
0.999916
0.999931
0.200724
0.128255
0.159435
0.224082
0.337122
0.457498
0.54426
0.634536
0.780896
0.899814
0.937428
0.91852
0.89513
0.918903
0.919683
0.900767
0.88335
0.851369
0.816659
0.791666
0.776821
0.784068
0.836384
0.0112588
0.00914965
0.0124627
0.0169086
0.0267761
0.0499172
0.109681
0.253462
0.414354
0.499964
0.49315
0.50564
0.773916
0.893684
0.515398
0.228963
0.145446
0.0981697
0.0612862
0.0447696
0.04035
0.0482786
0.0733579
0.00108967
0.000625757
0.000716894
0.000899796
0.00137449
0.0058508
0.0900796
0.173501
0.150997
0.120614
0.358219
0.643955
0.735507
0.746776
0.302964
0.00260143
0.00111049
0.00111049
0.00110629
0.00111374
0.00121392
0.00185307
0.00280566
0.000275108
7.35757e-05
4.82382e-05
7.56124e-05
0.000846797
0.00674614
0.00926304
0.00970837
0.0097297
0.00684926
0.0108509
0.0307755
0.149048
0.314125
0.362544
0.18724
0.00117783
0.00110632
0.00111373
0.00121344
0.0204059
0.0631736
0.070528
7.72227e-05
2.15199e-05
1.02204e-05
1.44391e-05
0.000147592
0.00051941
0.000578828
0.000564568
0.000181343
4.34124e-05
4.90611e-05
0.000294944
0.0014364
0.0310443
0.268256
0.264239
0.165198
0.00117712
0.00152854
0.00155981
0.00347879
0.175451
0.374324
2.22823e-05
6.98978e-06
2.55517e-06
2.07776e-06
2.40252e-06
3.22198e-06
1.4055e-05
4.06142e-05
5.6913e-05
2.57985e-05
4.81906e-06
2.70821e-05
0.000183699
0.00103162
0.062331
0.250956
0.245528
0.173874
0.0173867
0.0108631
0.0168217
0.166734
0.374315
7.65956e-06
2.79907e-06
7.14057e-07
3.70786e-07
2.53059e-07
2.0804e-07
2.33028e-07
6.97182e-07
2.32703e-06
3.41189e-06
1.5342e-06
1.8199e-06
1.40568e-05
9.18963e-05
0.000622559
0.0298664
0.241716
0.280209
0.292518
0.202317
0.121639
0.279299
0.374308
2.5677e-06
3.77908e-06
3.71716e-07
9.93534e-08
3.65387e-08
1.76601e-08
1.46559e-08
2.14733e-08
3.16627e-07
5.69643e-07
6.22275e-07
3.37986e-07
1.19798e-06
1.77513e-05
2.50863e-05
0.000117367
0.000415255
0.130476
0.301978
0.314224
0.314961
0.316
0.317243
6.33326e-07
2.26116e-06
6.0238e-07
3.57103e-08
1.64978e-08
3.51499e-09
1.81015e-09
1.97361e-09
1.51116e-07
2.36229e-07
9.55006e-08
8.1041e-08
1.08438e-06
3.50755e-07
1.81447e-06
2.28958e-06
4.44024e-05
2.39704e-05
1.49305e-05
0.115672
0.157763
0.0507745
4.7224e-05
1.33388e-07
1.88503e-07
7.64506e-07
2.3334e-07
4.21839e-09
1.90234e-09
1.36848e-09
1.29039e-09
1.51406e-07
1.46724e-07
2.27402e-08
1.70349e-08
3.63799e-07
2.48048e-07
6.19953e-08
1.26168e-07
2.48603e-07
7.82319e-07
1.95148e-06
3.62496e-06
6.28474e-06
1.14806e-05
2.19545e-05
2.14908e-08
3.51662e-08
4.73123e-07
3.76009e-07
4.96069e-08
1.36944e-09
1.23036e-09
1.29682e-09
7.7004e-08
5.13316e-08
4.64032e-09
7.3037e-09
1.34773e-07
7.79184e-08
1.6675e-08
2.49705e-06
8.26705e-06
8.76086e-06
1.04931e-05
1.76722e-05
2.94022e-05
2.64611e-05
3.93492e-05
3.35296e-09
1.10456e-08
3.84261e-08
1.0774e-07
5.67231e-08
6.42191e-09
1.04857e-09
1.6789e-09
1.59607e-09
3.12684e-10
2.25885e-10
8.27083e-08
7.43237e-08
8.92083e-09
5.85108e-09
2.96266e-07
7.39218e-05
0.000238996
5.55037e-05
1.84399e-05
0.000149394
0.000384236
0.000301237
5.28481e-10
1.87628e-09
3.39806e-09
2.4313e-09
1.03634e-08
4.93315e-09
9.32005e-10
1.53305e-09
3.93263e-10
9.27003e-11
8.7126e-11
1.43291e-07
1.52538e-07
3.79479e-08
4.5137e-09
3.73e-09
1.64772e-05
0.000370738
0.000599502
2.648e-05
3.56738e-05
0.000632907
0.00108866
1.59092e-10
4.87389e-10
6.22294e-10
4.23848e-10
2.19322e-10
9.28661e-10
4.22095e-10
5.95521e-10
2.23584e-10
6.83714e-11
7.15426e-11
1.45387e-07
1.52538e-07
6.24844e-08
2.63331e-09
8.38833e-10
5.79084e-09
0.000167021
0.000852764
0.000732213
3.3602e-05
3.4042e-05
0.000401751
9.5551e-11
2.19234e-10
1.78104e-10
1.75746e-10
1.01099e-10
1.04494e-10
9.43218e-11
9.5135e-11
9.07307e-11
6.42428e-11
6.79072e-11
8.11507e-08
1.23802e-07
3.84553e-08
1.0689e-09
2.73799e-10
1.35866e-09
7.02033e-08
0.000485712
0.00108515
0.000802112
0.00018143
0.000352672
3.82378e-11
8.64859e-11
7.69992e-11
6.58528e-11
3.61331e-11
1.86676e-11
1.95394e-11
2.09934e-11
3.98782e-11
5.7718e-11
2.90271e-10
4.69524e-09
8.11575e-09
6.72177e-09
1.61358e-09
1.62341e-10
3.50972e-10
3.54694e-08
5.17935e-07
0.000751447
0.00126309
0.00126582
0.00126607
9.56399e-12
1.97628e-11
1.88642e-11
1.35287e-11
6.89996e-12
3.77823e-12
4.8838e-12
7.09196e-12
1.91886e-11
6.81235e-11
4.92805e-10
5.02905e-10
7.1837e-10
6.49618e-10
6.573e-10
1.37672e-10
4.09452e-10
1.72942e-09
4.69981e-08
3.10195e-05
9.2484e-05
0.000362111
0.00115044
1.82545e-12
2.93698e-12
2.55548e-12
1.77443e-12
9.41623e-13
7.8691e-13
1.26399e-12
2.33904e-12
9.60595e-12
6.95673e-11
4.19709e-10
6.67853e-10
7.24873e-10
6.15856e-10
3.55585e-10
1.24477e-10
5.93367e-11
5.11419e-10
2.22027e-08
1.03029e-07
5.40738e-08
2.02679e-05
2.19587e-09
2.89201e-13
3.7644e-13
3.0185e-13
2.06829e-13
1.19892e-13
1.49544e-13
2.96065e-13
6.86484e-13
4.59825e-12
5.79149e-11
2.73183e-10
6.05071e-10
6.68633e-10
5.68908e-10
3.22609e-10
1.21367e-10
3.87053e-11
1.03157e-10
2.50188e-10
2.23896e-09
8.12543e-09
1.46527e-09
1.03797e-09
4.09049e-14
4.55243e-14
3.37686e-14
2.28037e-14
1.48043e-14
2.32569e-14
5.74063e-14
1.93274e-13
1.82676e-12
3.0039e-11
1.27334e-10
3.63313e-10
4.66892e-10
4.16863e-10
2.61176e-10
1.11534e-10
3.66466e-11
1.56627e-11
1.94801e-11
9.78402e-11
1.07097e-09
1.35445e-09
1.77147e-09
5.33064e-15
5.17647e-15
3.53603e-15
2.35453e-15
1.71204e-15
2.92285e-15
9.37729e-15
5.64438e-14
5.23723e-13
7.75279e-12
3.38391e-11
1.14092e-10
1.90318e-10
1.86502e-10
1.43193e-10
7.40568e-11
2.92132e-11
1.35742e-11
4.31709e-12
3.2456e-12
3.53972e-11
1.66226e-10
7.47039e-11
6.44919e-16
5.48781e-16
3.42756e-16
2.26278e-16
1.82323e-16
3.215e-16
1.41309e-15
1.64533e-14
1.0833e-13
9.75576e-13
4.4141e-12
1.60815e-11
3.47763e-11
4.24871e-11
3.96613e-11
2.61165e-11
1.31767e-11
7.21875e-12
3.58304e-12
7.73636e-13
1.76678e-12
4.91251e-12
8.97675e-12
7.26696e-17
5.43491e-17
3.0819e-17
2.03109e-17
1.79784e-17
3.34156e-17
2.04048e-16
4.06486e-15
1.8646e-14
8.67504e-14
3.50094e-13
1.19792e-12
2.93108e-12
4.54351e-12
4.98036e-12
4.12017e-12
2.54264e-12
1.68646e-12
1.11157e-12
4.95804e-13
3.05171e-13
3.0969e-13
4.0519e-13
7.65662e-18
5.04374e-18
2.58506e-18
1.71051e-18
1.65301e-18
3.32234e-18
2.67858e-17
7.01838e-16
2.78448e-15
8.57809e-15
2.7561e-14
8.09695e-14
1.8398e-13
3.02734e-13
3.43539e-13
3.22951e-13
2.16577e-13
1.50447e-13
1.19506e-13
8.51379e-14
4.40614e-14
3.52214e-14
5.09047e-14
7.57633e-19
4.39527e-19
2.03446e-19
1.35608e-19
1.4224e-19
3.11412e-19
3.00779e-18
7.78797e-17
3.32219e-16
9.20714e-16
2.5117e-15
6.56174e-15
1.3339e-14
2.00015e-14
2.02978e-14
1.89072e-14
1.25479e-14
6.78108e-15
5.20121e-15
4.70593e-15
3.62786e-15
3.5727e-15
6.59402e-15
7.06885e-20
3.60939e-20
1.50608e-20
1.01503e-20
1.14876e-20
2.73557e-20
2.89063e-19
6.32446e-18
3.12122e-17
9.14441e-17
2.3345e-16
5.70779e-16
1.09095e-15
1.42076e-15
1.34553e-15
1.12513e-15
7.10601e-16
3.15334e-16
1.64955e-16
1.48365e-16
1.7243e-16
2.68619e-16
9.52178e-16
6.23974e-21
2.80283e-21
1.0514e-21
7.18979e-22
8.74604e-22
2.25793e-21
2.503e-20
4.74865e-19
2.53358e-18
8.02524e-18
2.02228e-17
4.77905e-17
8.88419e-17
1.01184e-16
9.24475e-17
6.98423e-17
4.07563e-17
1.68988e-17
6.63064e-18
4.98002e-18
9.14298e-18
4.74363e-17
4.0028e-16
5.22576e-22
2.06486e-22
6.94237e-23
4.83471e-23
6.29677e-23
1.75944e-22
2.04091e-21
3.61417e-20
1.94417e-19
6.37839e-19
1.60087e-18
3.71121e-18
6.74361e-18
6.93042e-18
6.13261e-18
4.26203e-18
2.26026e-18
8.83279e-19
2.91558e-19
2.79495e-19
1.86586e-18
2.3331e-17
2.52334e-16
4.1626e-23
1.44805e-23
4.34909e-24
3.09309e-24
4.30865e-24
1.29939e-23
1.58589e-22
2.7024e-21
1.44071e-20
4.73212e-20
1.17279e-19
2.67554e-19
4.65354e-19
4.56318e-19
3.83869e-19
2.47357e-19
1.19392e-19
4.26052e-20
1.3697e-20
2.81588e-20
7.34332e-19
1.17666e-17
1.33061e-16
3.16006e-24
9.70219e-25
2.59309e-25
1.88646e-25
2.81571e-25
9.12957e-25
1.17229e-23
1.92793e-22
1.02127e-21
3.32777e-21
8.09637e-21
1.8168e-20
2.96737e-20
2.85935e-20
2.2644e-20
1.35939e-20
6.00164e-21
1.88942e-21
7.47379e-22
5.2259e-21
2.42207e-19
4.10748e-18
4.69879e-17
2.28988e-25
6.23634e-26
1.47655e-26
1.10009e-26
1.76314e-26
6.12726e-26
8.25079e-25
1.30947e-23
6.90021e-23
2.23212e-22
5.32965e-22
1.17721e-21
1.79221e-21
1.68968e-21
1.26629e-21
7.09052e-22
2.86243e-22
7.66443e-23
5.32775e-23
1.0307e-21
5.11907e-20
9.12619e-19
1.1213e-17
1.58539e-26
3.86242e-27
8.06056e-28
6.15368e-28
1.06139e-27
3.94453e-27
5.55658e-26
8.52967e-25
4.46513e-24
1.43459e-23
3.36521e-23
7.32676e-23
1.03382e-22
9.48531e-23
6.73728e-23
3.51564e-23
1.28486e-23
3.16498e-24
4.77552e-24
1.46239e-22
7.1856e-21
1.53838e-19
2.1448e-18
1.04921e-27
2.31448e-28
4.23725e-29
3.31316e-29
6.16475e-29
2.44669e-28
3.60292e-27
5.36589e-26
2.7865e-25
8.88251e-25
2.04767e-24
4.39484e-24
5.7145e-24
5.09226e-24
3.42187e-24
1.65861e-24
5.37906e-25
1.63315e-25
5.38369e-25
1.44796e-23
7.80346e-22
2.35394e-20
3.70587e-19
6.63779e-29
1.34631e-29
2.15556e-30
1.72337e-30
3.4687e-30
1.46967e-29
2.26396e-28
3.28097e-27
1.68867e-26
5.33327e-26
1.20801e-25
2.54941e-25
3.03942e-25
2.62595e-25
1.66283e-25
7.43165e-26
2.08239e-26
1.11581e-26
7.38048e-26
1.3655e-24
7.64426e-23
3.42917e-21
6.07911e-20
4.01429e-30
7.61842e-31
1.06684e-31
8.69842e-32
1.89969e-31
8.60013e-31
1.38872e-29
1.96408e-28
1.00132e-27
3.12912e-27
6.9622e-27
1.43495e-26
1.56545e-26
1.30587e-26
7.73394e-27
3.14353e-27
7.69074e-28
9.77748e-28
1.20433e-26
2.0092e-25
9.61236e-24
5.39679e-22
1.03684e-20
2.32112e-31
4.19806e-32
5.16562e-33
4.28182e-33
1.01837e-32
4.93714e-32
8.38482e-31
1.1608e-29
5.85916e-29
1.80938e-28
3.95301e-28
7.8478e-28
7.89345e-28
6.2792e-28
3.43845e-28
1.24442e-28
3.26686e-29
1.0807e-28
2.44722e-27
4.76089e-26
1.94334e-24
1.02773e-22
1.89684e-21
1.28411e-32
2.2529e-33
2.46038e-34
2.0676e-34
5.37861e-34
2.80268e-33
5.02727e-32
6.83341e-31
3.41353e-30
1.04018e-29
2.22907e-29
4.1635e-29
3.97018e-29
2.91213e-29
1.46066e-29
4.59497e-30
1.71337e-30
1.61307e-29
5.39573e-28
1.27305e-26
4.68575e-25
2.03407e-23
3.26393e-22
6.80772e-34
1.17735e-34
1.1588e-35
9.85844e-36
2.81934e-35
1.58643e-34
3.01843e-33
4.03976e-32
1.9962e-31
5.99187e-31
1.25637e-30
2.17473e-30
1.97361e-30
1.31497e-30
5.96155e-31
1.59483e-31
1.16229e-31
2.52581e-30
1.00525e-28
2.74658e-27
9.2415e-26
3.2023e-24
4.40425e-23
3.46872e-35
5.98719e-36
5.31708e-37
4.56854e-37
1.48064e-36
9.03249e-36
1.82922e-34
2.41613e-33
1.17994e-32
3.48149e-32
7.11714e-32
1.13315e-31
9.67389e-32
5.81614e-32
2.35314e-32
5.48955e-33
9.20006e-33
3.20622e-31
1.2732e-29
3.7521e-28
1.14499e-26
3.31691e-25
4.19342e-24
1.69463e-36
2.88167e-37
1.74382e-38
1.53333e-38
6.22886e-38
5.21593e-37
1.13443e-35
1.48099e-34
7.14337e-34
2.04291e-33
3.94793e-33
5.45419e-33
4.46931e-33
2.4235e-33
7.82885e-34
9.56716e-35
6.60818e-34
2.88674e-32
1.00994e-30
2.9496e-29
8.16714e-28
2.21751e-26
2.82397e-25
5.49528e-38
1.5515e-38
1.48957e-38
1.48957e-38
1.48957e-38
1.82787e-38
3.62176e-37
4.67845e-36
2.22995e-35
7.45428e-35
1.92967e-34
3.9844e-34
2.3657e-34
1.20901e-34
8.94051e-35
8.94051e-35
8.94051e-35
1.12457e-33
3.36055e-32
9.23214e-31
2.35837e-29
6.51338e-28
8.40541e-27
0.998926
0.99799
0.996911
0.995841
0.833239
0.818466
0.771306
0.703973
0.0706198
0.0630195
0.0456027
0.0425242
0.00247166
0.00247209
0.00247021
0.00268588
0.00284092
0.00247146
0.0025685
0.0026672
0.140745
0.0239079
0.00506111
0.0031426
0.374315
0.370763
0.173347
0.0355637
0.372369
0.36809
0.364626
0.360808
0.260164
0.282143
0.351546
0.346757
0.000130508
0.000282335
0.0256289
0.174635
4.84044e-05
7.74941e-05
0.000110909
0.000130433
5.69603e-05
7.21861e-05
7.8809e-05
5.33989e-05
0.000128083
7.76096e-05
5.45631e-05
3.57861e-05
0.00118104
0.000604486
0.000485124
0.000263811
0.0012582
0.00126237
0.0012582
0.00123846
0.000553745
0.00126372
0.00126338
0.00125425
0.00126606
0.00126606
0.0012586
0.000771938
0.00125162
0.00106935
0.000350874
3.90315e-09
1.03895e-09
5.98868e-10
8.05966e-10
5.52925e-10
6.11932e-10
4.23588e-10
3.40163e-10
3.28129e-10
2.47642e-09
2.47642e-09
1.57791e-09
3.44083e-10
1.49614e-11
1.69846e-11
3.59667e-11
1.19876e-10
1.24677e-11
1.54448e-11
1.70156e-11
1.88323e-11
5.81078e-13
7.97976e-13
1.118e-12
1.55896e-12
8.46708e-14
1.30458e-13
2.01736e-13
3.0482e-13
1.24768e-14
1.99643e-14
3.20695e-14
4.95065e-14
2.18716e-15
3.82194e-15
6.96279e-15
1.17361e-14
1.07719e-15
2.02223e-15
3.96227e-15
6.85772e-15
6.96629e-16
1.31413e-15
2.5893e-15
4.30502e-15
3.62583e-16
6.70571e-16
1.29467e-15
2.02814e-15
1.25894e-16
2.28955e-16
4.3296e-16
6.56143e-16
3.01034e-17
5.48903e-17
1.02734e-16
1.54394e-16
5.85614e-18
1.0801e-17
1.984e-17
2.96245e-17
1.02493e-18
1.90302e-18
3.44034e-18
5.04895e-18
1.69443e-19
3.16664e-19
5.81279e-19
8.35077e-19
2.89629e-20
5.43488e-20
9.78063e-20
1.45566e-19
5.18436e-21
9.34624e-21
1.6935e-20
3.43103e-20
8.41469e-22
1.49083e-21
3.82029e-21
1.64073e-20
1.08258e-22
2.36128e-22
1.34877e-21
1.06401e-20
1.0739e-23
4.19819e-23
4.92978e-22
5.04818e-21
8.19174e-25
7.25328e-24
1.1816e-22
1.33293e-21
2.83954e-26
5.91359e-25
1.06239e-23
1.21798e-22
0.953674
0.950611
0.876252
0.515088
0.84799
0.99253
0.906392
0.159134
0.0114988
0.175574
0.260831
0.154233
0.153897
0.153711
0.154315
0.159225
0.37765
0.355229
0.315443
0.793785
0.497436
0.115215
0.150187
0.851463
0.985813
0.712319
0.00267131
0.00170205
0.0028818
0.0470823
0.266662
0.331398
0.191911
0.157455
0.188484
0.507232
0.735385
0.79443
0.147038
0.3829
0.62551
0.625766
0.780721
0.907456
0.390366
0.00120942
0.00113413
0.00152304
0.0230879
0.233655
0.342478
0.378628
0.389702
0.449642
0.653383
0.832002
0.881288
0.0050345
0.102694
0.571744
0.874136
0.879191
0.769841
0.100285
0.000999552
0.00103488
0.00130402
0.00160611
0.000812319
0.0766382
0.267764
0.413556
0.46195
0.474376
0.756512
0.881548
0.00303217
0.00337594
0.11602
0.805236
0.879718
0.799752
0.0646752
0.000965664
0.000992057
0.00110367
0.00183034
0.000303851
0.000209195
0.000186079
0.000166958
0.000268076
0.0011391
0.185176
0.880813
0.00319011
0.00284221
0.0243932
0.607918
0.879718
0.81651
0.0886769
0.000957624
0.000953222
0.00112093
0.013371
0.0173615
0.000186079
0.000166955
0.000145803
9.24904e-05
0.000222799
0.0243802
0.704571
0.0148023
0.00267356
0.00436036
0.418552
0.879718
0.794981
0.122879
0.000953222
0.000933358
0.000911781
0.00327528
0.0203425
0.00651853
0.000229895
0.000123891
4.63047e-05
4.13313e-05
0.0092616
0.0517499
0.175815
0.00269541
0.00269541
0.147252
0.713337
0.79119
0.111303
0.000934204
0.000911781
0.000906052
0.000906849
0.0133046
0.0165109
0.00742044
0.000185641
3.9546e-05
2.60563e-05
4.0474e-05
0.000161371
0.335083
0.141617
0.00409776
0.0101288
0.157283
0.568969
0.0205231
0.0011581
0.000931781
0.000909844
0.000906052
0.000909844
0.0159632
0.011755
0.00116097
2.54849e-05
1.66171e-05
0.000585882
0.000524681
0.243018
0.240407
0.195602
0.0952828
0.097897
0.202538
0.27509
0.0365662
0.00116198
0.000949961
0.000909844
0.000926944
0.00763148
0.0139386
0.00253635
1.58945e-05
1.33895e-05
0.00114853
0.0112848
0.000180298
0.0675782
0.498394
0.605782
0.608723
0.611581
0.652275
0.554965
0.190735
0.00160189
0.00103113
0.00587809
0.0490855
0.0272872
0.00015982
1.43985e-05
1.27888e-05
0.000524881
0.0459756
3.51216e-05
1.86731e-05
0.000108581
0.126152
0.566216
0.652566
0.652588
0.652275
0.648058
0.37507
0.26216
0.374895
0.316163
0.0251624
0.000201878
1.55834e-05
7.32184e-06
3.24025e-05
0.0520132
1.67014e-05
2.2037e-06
1.87216e-06
8.63155e-06
5.46368e-05
0.193962
0.494819
0.599522
0.601234
0.597681
0.545009
0.404349
0.223965
0.01236
0.000173232
6.72689e-06
3.20263e-07
1.03032e-07
0.0520936
0.000106701
1.56708e-06
9.44112e-07
6.59512e-07
3.32465e-07
6.75752e-06
0.0148635
0.0786394
0.129497
0.167066
0.101691
0.0199028
0.00763378
0.00699405
0.000686108
1.6894e-06
4.98582e-08
4.98511e-08
0.0521086
0.000627343
9.33323e-07
6.43043e-07
3.07441e-07
6.82519e-08
3.12085e-08
2.92446e-08
0.000480026
0.000246591
4.28947e-05
1.75914e-07
3.26913e-07
5.06401e-08
5.23844e-08
4.99197e-08
4.98772e-08
4.98511e-08
4.97998e-08
0.0523237
0.000500525
1.21022e-05
4.3852e-06
4.87895e-06
1.55543e-08
1.48847e-08
1.43362e-08
1.50905e-08
3.98813e-08
8.29254e-09
7.85336e-08
5.19729e-08
5.1177e-08
5.03344e-08
5.02335e-08
4.99214e-08
4.98196e-08
4.98511e-08
0.0524095
2.39392e-06
7.77671e-06
1.08529e-05
5.73722e-06
9.78266e-07
1.43355e-08
1.43355e-08
5.30889e-08
2.11754e-07
7.68553e-09
4.6036e-07
3.89281e-07
5.10282e-08
1.49092e-07
1.12495e-07
5.51385e-08
5.60877e-08
1.52888e-07
0.0524279
6.95239e-10
1.04905e-09
1.83967e-08
1.22629e-09
1.2697e-06
1.30409e-07
1.45944e-08
5.51141e-10
5.53009e-10
5.70594e-09
1.24883e-08
5.26836e-10
7.24853e-08
1.26928e-06
1.23294e-06
4.04623e-07
1.60179e-07
1.50484e-07
0.052425
3.647e-10
8.45952e-10
1.04879e-09
1.09614e-09
1.06715e-09
8.40052e-08
2.18782e-08
2.22049e-09
5.26254e-10
5.26863e-10
5.26179e-10
5.26634e-10
2.14889e-07
1.38836e-06
1.3837e-06
6.33243e-07
3.75414e-05
5.97162e-07
0.0524002
3.43784e-10
2.5466e-09
6.95047e-09
6.33415e-09
1.14202e-09
1.66814e-10
1.93773e-09
2.72609e-09
7.41694e-10
5.26269e-10
6.92719e-10
5.32003e-10
5.47561e-10
8.4967e-07
1.39027e-06
4.37536e-07
0.00035158
1.32964e-06
0.0523426
8.49344e-10
5.42256e-09
7.24648e-09
7.2951e-09
3.03169e-09
1.49359e-10
1.39101e-10
1.41419e-10
3.51073e-10
6.37274e-10
1.6637e-09
1.34641e-09
8.17466e-10
8.35964e-10
1.17646e-06
4.52894e-07
0.000363117
1.48717e-06
0.0522353
5.68173e-11
2.13482e-11
2.29484e-11
5.01677e-11
4.96956e-11
1.22813e-10
1.46138e-10
1.93921e-10
5.01254e-10
1.06225e-09
1.84908e-09
1.86734e-09
8.95623e-10
8.5534e-10
4.67448e-07
2.28465e-07
0.000363029
5.16619e-07
0.052053
1.90307e-11
2.12019e-11
2.82879e-11
4.68134e-11
8.13489e-11
1.39398e-10
1.66763e-10
2.31022e-10
6.74161e-10
9.96687e-10
1.5152e-09
1.79335e-09
9.11313e-10
8.79079e-10
2.13273e-07
2.19516e-07
9.59721e-05
2.38729e-07
0.0517826
2.15763e-12
2.85838e-12
5.24138e-12
1.55855e-11
5.30316e-11
1.45552e-10
1.83299e-10
2.42289e-10
5.09186e-10
6.74822e-10
1.76504e-09
1.79488e-09
9.87065e-10
1.6599e-09
1.6764e-07
2.33829e-07
2.26618e-07
2.32673e-07
0.0515253
4.51747e-13
7.83285e-13
3.06944e-12
1.38365e-11
7.43235e-11
2.18311e-10
2.16009e-10
2.13527e-10
2.19855e-10
6.84298e-08
5.45097e-08
1.29137e-08
3.36347e-08
4.43235e-07
3.11783e-07
2.21744e-07
2.21744e-07
2.32674e-07
0.0506902
8.42911e-14
3.98697e-13
3.08252e-12
2.08522e-11
1.25786e-10
2.47276e-10
2.0541e-10
2.03892e-10
2.59317e-08
8.28161e-07
7.57398e-07
6.64042e-08
2.62397e-07
6.6388e-07
4.61965e-07
2.37419e-07
4.47684e-06
3.02093e-07
0.023634
3.07936e-14
3.76068e-13
4.36838e-12
3.10475e-11
1.68007e-10
2.47154e-10
1.95231e-10
1.96939e-10
7.23515e-07
9.55393e-07
9.55393e-07
8.83212e-08
2.75283e-07
6.64537e-07
3.4526e-07
2.39175e-07
3.29203e-05
1.00904e-06
8.33717e-06
2.20835e-14
4.74434e-13
5.24885e-12
4.84102e-11
1.80517e-10
2.20696e-10
1.92821e-10
9.51769e-08
9.54795e-07
9.55408e-07
1.49356e-07
4.44948e-08
7.56654e-08
6.60392e-07
3.52851e-07
1.92628e-05
5.72419e-05
0.000119454
5.16486e-05
1.77858e-14
5.75138e-13
6.08884e-12
6.58177e-11
1.91904e-10
1.89812e-10
1.91458e-10
3.93633e-07
9.54182e-07
8.12862e-07
4.50299e-08
4.44948e-08
4.73122e-08
3.18315e-07
4.4621e-05
8.46934e-05
8.13564e-05
0.000826248
0.000103764
1.63594e-14
7.18321e-13
7.74659e-12
5.13673e-11
1.89492e-10
1.88549e-10
1.89935e-10
3.18175e-07
9.54182e-07
2.17467e-07
4.7493e-08
4.50299e-08
7.04861e-08
2.62625e-07
3.05641e-05
5.44165e-05
7.45239e-05
0.000826248
0.000148279
1.89142e-14
8.37295e-13
8.99319e-12
2.87475e-11
1.65068e-10
1.99565e-10
1.92618e-10
1.90734e-10
6.92304e-07
3.64565e-07
2.46633e-06
2.05265e-06
4.0658e-06
2.35001e-06
3.17796e-06
1.50965e-06
1.38643e-05
0.000826248
0.000120674
2.01749e-14
7.48733e-13
5.19448e-12
1.55667e-11
1.32157e-10
2.01528e-10
2.02081e-10
1.88457e-10
1.51744e-10
2.51407e-07
1.10144e-05
2.44429e-05
3.07346e-05
2.80225e-05
2.11822e-05
1.5385e-06
5.98116e-08
0.000210132
3.1176e-05
1.06946e-14
3.86306e-13
1.65077e-12
4.3297e-12
6.70843e-11
1.5872e-10
2.4601e-10
2.57812e-10
1.50636e-10
1.49951e-10
9.59079e-06
3.06592e-05
3.0778e-05
3.06592e-05
2.50477e-05
2.55168e-06
1.19666e-10
6.1196e-12
1.40077e-12
2.21223e-15
7.25451e-14
3.4554e-13
1.41591e-12
2.64665e-11
4.8331e-11
2.76455e-10
3.92964e-10
1.76141e-10
1.49423e-10
4.6648e-12
1.08591e-05
2.0051e-05
8.43029e-06
9.00817e-13
2.9633e-12
5.51411e-13
1.12603e-12
1.33242e-12
1.76906e-16
9.11658e-15
1.19838e-13
1.14119e-12
9.04386e-12
9.81549e-12
2.94198e-10
3.92964e-10
2.50302e-10
1.67054e-10
4.15924e-12
2.88407e-14
1.91093e-15
7.47647e-16
6.88978e-16
8.14264e-16
1.87474e-13
1.98604e-12
1.33242e-12
2.51519e-17
2.57083e-15
9.43089e-14
1.12388e-12
3.10043e-12
2.17839e-12
1.19536e-10
2.33573e-10
1.26343e-10
1.70311e-10
9.19616e-11
1.81263e-11
9.8945e-13
9.32309e-15
4.98475e-16
6.04172e-12
1.26785e-11
1.15716e-11
2.51572e-12
1.12757e-17
9.63913e-16
6.06251e-14
4.66965e-13
8.93427e-13
6.73374e-13
4.87606e-12
1.76525e-11
2.29227e-11
1.22122e-10
9.57715e-11
2.67045e-11
1.60157e-12
1.17248e-14
2.31533e-17
1.86752e-11
2.45814e-11
1.54169e-11
1.88456e-12
6.069e-18
3.07084e-16
1.84825e-14
4.70754e-14
1.52937e-13
1.34827e-13
2.88762e-12
6.85163e-12
6.58592e-12
2.6186e-11
1.87108e-11
4.78868e-12
2.56264e-13
2.3577e-16
3.79603e-20
2.36967e-11
2.56052e-11
1.16931e-11
5.66766e-13
2.36298e-18
5.58769e-17
1.53342e-15
2.1822e-15
2.21845e-14
1.7497e-14
1.22292e-12
1.24472e-12
7.52718e-13
4.33742e-13
1.98127e-13
3.15906e-14
6.80165e-16
4.95949e-20
4.36597e-24
2.34404e-11
2.00284e-11
3.27207e-12
4.77444e-14
5.04512e-19
4.76048e-18
2.21129e-17
6.01071e-17
1.56324e-15
8.12393e-16
5.72581e-14
3.773e-14
8.80165e-15
3.86519e-17
4.13082e-23
1.44248e-25
1.23694e-26
1.26361e-28
6.34313e-33
1.47821e-11
4.59956e-12
2.90244e-13
8.43108e-16
4.9792e-20
1.90624e-19
5.40456e-19
5.97979e-18
2.41321e-17
6.85356e-18
4.60489e-16
1.59316e-16
5.95845e-18
1.66665e-21
1.16035e-29
1.15297e-32
1.36078e-35
1.62927e-31
1.79203e-41
2.17087e-12
4.65663e-13
8.68457e-15
2.10889e-19
1.35517e-21
2.27785e-21
6.33229e-21
1.23931e-19
4.42229e-20
1.72094e-20
1.96218e-20
2.48957e-21
1.19482e-23
6.94839e-29
3.95866e-38
7.46056e-41
1.70132e-42
7.04701e-46
-4.52025e-57
1.59595e-14
1.09575e-15
6.9363e-20
4.17801e-38
)
;

boundaryField
{
    leftWall
    {
        type            zeroGradient;
    }
    rightWall
    {
        type            zeroGradient;
    }
    lowerWall
    {
        type            zeroGradient;
    }
    atmosphere
    {
        type            inletOutlet;
        inletValue      uniform 0;
        value           nonuniform List<scalar> 
46
(
5.49528e-38
1.5515e-38
1.48957e-38
1.48957e-38
1.48957e-38
1.82787e-38
3.62176e-37
4.67845e-36
2.22995e-35
7.45428e-35
1.92967e-34
3.9844e-34
2.3657e-34
1.20901e-34
8.94051e-35
8.94051e-35
8.94051e-35
1.12457e-33
3.36055e-32
9.23214e-31
2.35837e-29
6.51338e-28
8.40541e-27
2.83954e-26
5.91359e-25
1.06239e-23
1.21798e-22
0
0
0
0
0
0
0
0
0
0
0
0
0
0
0
0
0
0
0
)
;
    }
    defaultFaces
    {
        type            empty;
    }
}


// ************************************************************************* //
