/*--------------------------------*- C++ -*----------------------------------*\
  =========                 |
  \\      /  F ield         | OpenFOAM: The Open Source CFD Toolbox
   \\    /   O peration     | Website:  https://openfoam.org
    \\  /    A nd           | Version:  13
     \\/     M anipulation  |
\*---------------------------------------------------------------------------*/
FoamFile
{
    format      ascii;
    class       volScalarField;
    location    "0.8";
    object      p;
}
// * * * * * * * * * * * * * * * * * * * * * * * * * * * * * * * * * * * * * //

dimensions      [1 -1 -2 0 0 0 0];

internalField   nonuniform List<scalar> 
2268
(
655.978
657.069
660.501
666.841
679.287
701.067
731.036
764.762
799.631
834.243
865.476
890.063
904.77
908.166
901.191
886.751
867.191
846.371
827.383
817.367
821.573
832.21
835.35
596.198
596.719
599.698
605.4
616.969
639.265
670.729
705.337
740.823
776.218
808.79
834.251
849.109
851.688
843.983
829.827
811.905
789.56
766.225
754.845
759.027
768.439
773.225
532.729
532.897
536.111
541.687
552.84
575.988
609.106
645.309
682.017
718.78
752.835
779.816
795.274
797.314
788.117
772.744
754.624
731.866
708.26
696.885
699.718
705.911
710.419
466.273
466.36
470.149
475.624
486.151
510.158
546.146
584.889
623.367
662.135
698.646
727.919
744.286
745.253
733.56
715.506
695.399
673.266
651.249
639.773
640.446
643.64
647.478
397.924
397.89
402.241
407.774
418.268
443.973
483.231
524.542
564.837
606.176
646.035
678.632
696.225
695.411
679.915
657.977
635.417
613.312
593.075
581.199
579.436
580.719
584.47
328.523
328.034
332.893
339.119
350.907
379.031
421.081
464.144
506.173
550.775
594.935
632.281
651.624
648.155
627.059
599.733
573.979
551.149
531.659
519.799
516.832
517.524
521.352
258.816
257.365
262.858
270.796
285.319
315.925
358.659
402.177
446.137
495.361
546.879
589.371
611.142
603.745
574.586
540.185
510.835
487.112
467.926
456.437
453.252
454.196
458.805
188.438
187.223
192.745
203.351
221.457
253.904
296.789
338.193
383.615
438.707
498.573
549.968
574.587
560.902
520.724
477.602
444.851
420.901
401.839
391.086
388.297
390.157
399.793
984.827
910.503
878.798
934.485
1061.74
1181.08
1251
1282.95
1233.04
1184.55
1177.35
1061.4
858.088
724.774
662.994
645.194
667.501
727.683
848.442
925.66
828.362
790.557
855.141
990.708
1116.12
1221.74
1259.91
1160.98
1088.1
1080.66
958.346
757.068
647.36
601.625
594.901
610.746
681.56
814.054
846.623
732.667
701.556
774.321
914.228
1043.66
1153.67
1188.06
1039.29
992.651
960.389
795.063
619.752
552.306
528.301
516.472
541.329
628.528
777.67
757.905
643.678
626.607
704.919
844.779
969.53
1058.71
1042.29
908.939
873.597
815.66
613.568
475.247
456.033
456.003
443.356
457.087
552.664
744.453
675.322
566.308
566.01
649.319
787.946
894.205
945.933
841.888
751.001
711.905
650.472
427.219
326.378
355.154
379.029
371.039
366.282
470.272
719.026
606.369
504.866
523.088
599.946
735.86
833.545
825.962
624.101
571.589
535.417
476.417
275.121
258.584
289.342
315.166
310.475
275.427
405.656
704.58
547.308
466.075
494.506
554.667
673.007
750.447
694.308
390.283
359.939
348.434
323.876
220.136
235.585
270.447
292.243
288.686
269.499
396.504
708.473
488.527
432.14
450.772
502.913
595.776
650.653
544.81
191.215
121.3
158.149
203.81
197.051
219.743
258.153
283.217
289.635
308.491
462.838
715.688
93.3324
90.0586
97.1991
113.476
135.733
160.627
191.233
229.397
280
347.889
426.525
496.539
529.163
501.642
435.248
374.076
337.128
313.505
296.164
285.807
283.912
287.299
295.7
31.106
23.4335
25.2615
30.7406
40.1243
55.5746
76.6909
98.4003
132.993
207.888
333.124
469.003
552.048
472.705
329.013
227.837
189.584
172.305
157.462
148.325
150.509
158.516
166.568
16.0872
12.9432
10.7082
9.59502
10.1654
15.726
23.0314
21.448
40.4993
118.686
279.033
416.698
454.502
364.963
211.905
120.719
98.7567
95.8452
93.7989
92.1165
96.4363
102.218
102.561
11.6355
10.2165
8.7566
7.63405
7.4209
8.19646
9.00935
8.5594
8.33074
16.9068
46.7444
113.842
200.37
201.652
129.574
95.2271
89.5744
89.1455
89.9831
90.9533
92.4309
93.7474
90.0406
8.96334
8.13736
7.13781
6.24908
5.48551
4.4376
3.35061
2.94604
3.24894
3.93483
5.24927
10.6764
26.6173
43.2047
66.3499
89.5772
90.6471
88.9288
87.7624
87.4072
87.6433
86.8746
82.9482
7.10734
6.46689
5.60561
4.71787
3.85982
3.07354
2.70121
2.74617
2.95963
3.10987
3.33462
4.02451
5.38212
6.94177
16.087
47.7976
81.6807
87.4462
87.2129
85.8604
84.5877
83.6631
72.2925
5.79583
5.23429
4.54643
3.84144
3.29622
2.91724
2.74104
2.68232
2.67327
2.80061
2.87635
3.00441
3.28578
3.62484
4.76727
16.331
47.0761
74.8559
84.4392
84.1101
81.4726
76.7976
76.4191
4.96361
4.43121
3.95009
3.4486
3.13896
2.9468
2.84294
2.77502
2.71308
2.68751
2.7063
2.77468
2.89811
3.0326
2.96624
4.26657
15.268
39.8469
59.7252
68.6814
68.2073
59.1298
60.0632
4.50553
3.98592
3.6274
3.27424
3.06705
2.9496
2.87864
2.81856
2.74475
2.66944
2.64539
2.69186
2.77212
2.8671
2.93465
2.85215
3.01401
10.1191
17.7024
24.6998
31.9762
26.3384
24.0109
4.25884
3.77129
3.43985
3.1591
3.00953
2.93293
2.87976
2.82397
2.756
2.68801
2.65125
2.66621
2.71334
2.75604
2.77969
2.78962
2.80224
2.49992
1.85311
7.57291
9.87029
7.50154
4.28218
4.07365
3.68982
3.33311
3.0732
2.96247
2.91897
2.87959
2.82481
2.76103
2.70163
2.66105
2.64874
2.65493
2.65574
2.63621
2.60063
2.5792
2.55662
2.35932
1.73311
1.29374
1.90762
2.40238
3.8627
3.65825
3.33845
3.08412
2.97307
2.93062
2.88688
2.82468
2.75706
2.69589
2.64755
2.61515
2.59355
2.56986
2.52461
2.47433
2.45336
2.42816
2.24678
1.86166
1.63061
1.70211
1.70417
3.62809
3.59913
3.42431
3.1997
3.05464
2.97263
2.90012
2.82046
2.7424
2.67303
2.61422
2.56611
2.52528
2.48549
2.4366
2.37805
2.3309
2.29186
2.09422
1.66031
1.23239
0.95558
0.916637
3.44152
3.513
3.47545
3.30222
3.13271
3.00729
2.90227
2.80511
2.71726
2.63978
2.57182
2.51178
2.45614
2.39977
2.33728
2.25827
2.15359
2.01707
1.77254
1.35281
0.850723
0.42244
0.254202
3.33279
3.42144
3.42457
3.29616
3.13584
2.99611
2.8766
2.77179
2.67964
2.59784
2.52419
2.45615
2.38964
2.31879
2.23684
2.13168
1.98733
1.78478
1.50543
1.08226
0.639464
0.30394
0.166082
3.24537
3.3008
3.29111
3.19562
3.06428
2.93686
2.82221
2.72016
2.62931
2.54718
2.47143
2.3994
2.327
2.24837
2.15594
2.0367
1.87559
1.66313
1.3918
1.04587
0.647359
0.414713
0.356221
3.13028
3.14383
3.12684
3.05543
2.95403
2.84852
2.74778
2.65445
2.56887
2.48967
2.41506
2.34287
2.26975
2.19087
2.09996
1.98663
1.83671
1.63802
1.39817
1.13712
0.903912
0.656164
0.596636
2.98773
2.98424
2.96529
2.90949
2.83175
2.74684
2.66137
2.57897
2.50109
2.42738
2.3568
2.28786
2.2183
2.14483
2.06327
1.96746
1.84804
1.69234
1.49788
1.2914
1.11859
1.02918
1.11322
2.84064
2.83477
2.81398
2.76865
2.70796
2.63948
2.5679
2.49669
2.42763
2.36109
2.29667
2.23357
2.17052
2.10574
2.03698
1.96143
1.87529
1.77355
1.65208
1.52392
1.42608
1.42162
1.52613
2.69738
2.69216
2.67127
2.63388
2.58543
2.52978
2.47018
2.40947
2.34942
2.2908
2.23372
2.17795
2.12299
2.0682
2.01276
1.956
1.89746
1.8378
1.77907
1.72748
1.70123
1.72472
1.80889
2.55848
2.55407
2.53501
2.50405
2.46478
2.41931
2.36984
2.31859
2.26716
2.21651
2.1671
2.11913
2.07265
2.02772
1.98443
1.94316
1.90478
1.87137
1.84679
1.83595
1.84683
1.88787
1.96783
2.42401
2.42026
2.40372
2.37807
2.34601
2.30876
2.26781
2.22487
2.18138
2.1383
2.09632
2.0559
2.01746
1.98142
1.94832
1.91895
1.89448
1.87671
1.86848
1.8732
1.89498
1.94021
2.00964
2.2935
2.29037
2.27632
2.25512
2.22888
2.19834
2.16454
2.12883
2.09243
2.05628
2.02115
1.98765
1.95638
1.92795
1.90305
1.88256
1.86759
1.8596
1.8605
1.87266
1.89868
1.94154
2.00009
2.16633
2.16379
2.15201
2.13452
2.11304
2.08803
2.06024
2.03074
2.00057
1.9706
1.94158
1.9142
1.88912
1.86698
1.84854
1.83461
1.82616
1.82433
1.83043
1.84591
1.87207
1.90964
1.9578
2.04193
2.03992
2.03011
2.01573
1.99819
1.97777
1.95501
1.93079
1.906
1.88141
1.85773
1.83563
1.81576
1.79876
1.78533
1.77619
1.77212
1.77396
1.78257
1.79873
1.82294
1.85538
1.89511
1.91978
1.91823
1.91011
1.89832
1.88404
1.86741
1.84886
1.82912
1.80891
1.78893
1.76981
1.75218
1.73664
1.72377
1.71418
1.70849
1.70728
1.71117
1.72067
1.73618
1.75788
1.78563
1.81849
1.79941
1.79824
1.79155
1.78192
1.77034
1.75687
1.74183
1.72583
1.70949
1.6934
1.67813
1.66423
1.65223
1.64264
1.63598
1.63274
1.63337
1.63829
1.6478
1.6621
1.68116
1.70481
1.73202
1.68045
1.67957
1.67408
1.66624
1.6569
1.64604
1.63392
1.62104
1.60793
1.5951
1.58303
1.5722
1.56307
1.55607
1.55162
1.55012
1.5519
1.55724
1.56631
1.57918
1.59572
1.61563
1.63833
1.56256
1.56191
1.55743
1.55108
1.54358
1.53487
1.52516
1.51487
1.50445
1.49432
1.48489
1.47656
1.46973
1.46475
1.46197
1.46169
1.46415
1.46954
1.47795
1.48937
1.50362
1.52042
1.53933
1.44549
1.44501
1.44136
1.43624
1.43025
1.42332
1.4156
1.40745
1.39924
1.39132
1.38405
1.37775
1.37275
1.36934
1.3678
1.36836
1.37119
1.37642
1.38407
1.3941
1.40634
1.42054
1.43631
1.32901
1.32864
1.32569
1.32158
1.31684
1.31137
1.30529
1.29889
1.2925
1.28639
1.28086
1.27619
1.27263
1.27043
1.26981
1.27093
1.27392
1.27886
1.28574
1.2945
1.30498
1.31695
1.33014
1.21297
1.21266
1.2103
1.20702
1.2033
1.19902
1.19427
1.18932
1.1844
1.17976
1.17563
1.17225
1.16983
1.16855
1.16858
1.17006
1.17307
1.17765
1.18379
1.19141
1.20035
1.21044
1.2214
1.09723
1.09696
1.09509
1.09248
1.0896
1.08629
1.08263
1.07884
1.07511
1.07166
1.06866
1.06629
1.06474
1.06415
1.06465
1.06633
1.06927
1.07347
1.0789
1.0855
1.09314
1.10164
1.1108
0.981672
0.98144
0.979963
0.977902
0.975702
0.973176
0.970399
0.967553
0.964793
0.96228
0.960168
0.958601
0.957715
0.957629
0.958441
0.960223
0.963017
0.966827
0.97162
0.977323
0.983826
0.990993
0.998653
0.866222
0.866045
0.86488
0.863259
0.861612
0.859716
0.857649
0.85556
0.853567
0.851802
0.850384
0.849428
0.849041
0.849315
0.850323
0.852118
0.854727
0.858147
0.862342
0.867248
0.872769
0.878791
0.885172
0.750821
0.750721
0.749794
0.748527
0.747321
0.745924
0.744426
0.742937
0.741549
0.740367
0.739483
0.738986
0.738958
0.73947
0.740576
0.742313
0.744699
0.747724
0.751355
0.755533
0.760177
0.76519
0.770449
0.635419
0.635427
0.634672
0.633689
0.632828
0.631825
0.630774
0.629754
0.628835
0.628098
0.627612
0.627444
0.627656
0.6283
0.629417
0.631032
0.633154
0.63577
0.63885
0.642343
0.646178
0.650272
0.654521
0.519981
0.520124
0.519486
0.518733
0.518143
0.517443
0.516741
0.516079
0.515512
0.515102
0.514896
0.514944
0.515291
0.515974
0.517021
0.518451
0.520265
0.522452
0.524981
0.527811
0.530882
0.534126
0.537451
0.404495
0.404786
0.404218
0.403662
0.40328
0.402813
0.402376
0.401978
0.401666
0.401479
0.401451
0.401615
0.402005
0.402643
0.40355
0.404737
0.406201
0.407933
0.409907
0.41209
0.414434
0.416885
0.419368
0.288934
0.289355
0.288851
0.288475
0.288252
0.28796
0.28772
0.287508
0.287365
0.287315
0.287377
0.287575
0.287928
0.288451
0.289157
0.290051
0.291131
0.292387
0.293803
0.295354
0.297006
0.298717
0.30043
0.173416
0.173873
0.173409
0.173207
0.173104
0.172948
0.172847
0.172756
0.172714
0.172727
0.172807
0.172967
0.173217
0.173565
0.174018
0.174578
0.175244
0.17601
0.176865
0.177796
0.178782
0.179797
0.180799
0.0574346
0.0579381
0.0577772
0.0577357
0.057705
0.0576532
0.0576464
0.0576343
0.0576503
0.057684
0.0577417
0.0578264
0.0579396
0.0580839
0.0582609
0.0584709
0.0587128
0.0589844
0.0592822
0.0596006
0.0599319
0.0602654
0.0605818
301.81
308.936
321.139
339.927
157.733
153.622
153.892
166.241
91.6187
88.3624
88.1496
92.5397
84.5432
83.4606
83.3875
84.0186
83.4301
83.4924
83.9238
84.0509
79.961
84.7493
86.0255
85.7169
78.1784
75.4807
78.2975
82.2195
70.6653
76.1304
76.2765
68.2347
33.3566
34.4652
32.5509
30.5739
3.39675
3.17638
2.94924
5.4245
2.41075
2.333
1.84153
0.945809
1.68474
1.70148
1.72602
1.80415
1.12782
1.30565
1.52349
1.84302
0.474088
0.77152
1.17688
1.66364
0.343965
0.609649
1.01649
1.51512
0.53166
0.7461
1.09486
1.54759
0.782225
1.0032
1.33347
1.72263
1.30838
1.47325
1.69542
1.94113
1.6859
1.81227
1.95873
2.11867
1.92731
2.02504
2.13134
2.24205
2.06346
2.13355
2.20416
2.27501
2.08035
2.13107
2.1826
2.2343
2.05517
2.09351
2.13216
2.1707
2.00089
2.03036
2.06004
2.08967
1.92947
1.95271
1.97606
1.99933
1.84616
1.8647
1.88332
1.90187
1.75445
1.7694
1.78443
1.79941
1.6567
1.66888
1.68111
1.69331
1.55445
1.56443
1.57445
1.58444
1.44878
1.45698
1.46521
1.47342
1.34044
1.34719
1.35395
1.36071
1.22997
1.23556
1.24114
1.24671
1.11791
1.12253
1.12714
1.13174
1.00455
1.00837
1.01218
1.01597
0.890036
0.893181
0.896311
0.899417
0.774419
0.776975
0.779503
0.782006
0.657685
0.659709
0.661713
0.663682
0.539894
0.541451
0.542987
0.54448
0.421167
0.422306
0.42342
0.424502
0.301653
0.302423
0.303171
0.303891
0.181503
0.181944
0.18236
0.182739
0.0607924
0.0609179
0.0610291
0.0611206
380.896
358.54
357.243
403.812
475.078
479.382
271.705
61.8973
23.0732
22.0813
81.2386
150.457
192.826
238.484
264.451
280.923
341.131
548.627
731.011
220.388
345.321
331.615
336.339
375.881
348.33
49.3506
22.9725
13.6285
10.3012
18.4343
62.9851
137.057
202.934
237.221
261.533
330.323
493.873
648.009
109.063
185.376
259.644
308.564
387.317
351.479
11.1099
8.04968
7.34511
5.22229
4.38553
19.5451
52.8049
117.61
164.744
200.948
260.132
363.234
453.718
85.9053
88.278
127.796
259.287
374.997
297.512
6.85534
3.52721
3.52398
1.5401
-0.00309108
0.802675
7.38977
19.6572
31.7094
46.7716
95.399
174.129
234.997
82.4483
78.355
79.6849
141.91
248.245
148.665
3.1439
1.6623
1.19506
-0.295256
-0.526918
1.57426
2.64542
2.63482
3.45931
6.5866
15.5814
32.1757
97.7916
83.6379
78.9667
80.0836
85.3423
124.452
46.5423
0.149993
0.00477565
-1.10251
-2.48861
-2.16888
1.3233
2.21866
2.22257
2.58456
3.51676
5.47778
10.7113
69.4887
81.5849
78.6466
77.8188
77.5932
66.9747
26.9517
-1.8466
-1.34164
-3.18427
-4.64916
-4.07106
-1.05245
1.56876
1.896
2.08488
2.51943
3.28047
5.7759
15.4445
71.1675
76.6449
75.7223
76.7371
76.254
66.6718
0.503044
-1.02607
-4.17511
-5.49648
-4.37416
-0.380406
1.34933
1.61266
1.84906
2.14565
2.73371
4.42582
7.61004
37.8138
67.9548
73.9168
72.2648
71.8192
73.3599
45.0386
7.09937
-3.2111
-4.65598
-2.94992
0.308501
2.29961
2.03668
2.08462
2.3126
2.79785
4.03691
6.16709
9.93809
37.743
66.326
64.4846
58.5255
71.8473
137.661
28.2048
1.92771
-1.84837
0.00829729
2.28874
4.05476
3.00344
2.63169
2.61828
2.9508
3.59232
5.27694
0.9925
9.0396
34.1799
34.7298
31.7525
69.6115
190.415
97.3938
5.48693
1.15571
4.35998
5.41683
5.31433
2.54465
2.59046
2.60063
2.81405
2.38566
4.10243
2.23628
3.51715
4.15456
11.0376
34.3352
51.7759
106.336
85.6837
32.0071
1.91378
-2.70596
-15.4364
-1.78163
1.80821
2.52671
2.69079
2.87263
2.38571
3.43222
2.55096
3.40403
3.91349
4.03395
4.66116
15.2384
33.4362
37.7613
34.5235
34.421
30.1017
20.1252
13.6283
3.70896
2.91303
3.00328
3.1392
2.96979
3.58602
2.53125
3.37387
3.85277
4.10315
4.2698
4.18588
5.13258
8.73703
11.7543
14.2879
10.0901
5.00876
4.06414
3.92423
3.42669
3.25507
3.30433
3.20397
3.69105
2.43173
3.24147
3.73572
4.03719
4.15989
4.15798
4.06838
3.91144
3.81228
3.83604
3.79186
3.60849
3.4546
3.47549
3.48535
3.36062
3.36394
3.27295
3.66266
2.33294
3.07224
3.5427
3.80613
3.91901
3.94244
3.89238
3.80539
3.73216
3.66129
3.56003
3.50318
3.41849
3.39082
3.37969
3.32355
3.34642
3.24949
3.59926
2.29689
2.9192
3.3495
3.57896
3.68023
3.7023
3.66561
3.60276
3.55661
3.50982
3.44865
3.38612
3.3303
3.29893
3.28862
3.2469
3.29051
3.17329
3.51719
2.33425
2.81878
3.16672
3.35594
3.44334
3.4739
3.45547
3.42276
3.3867
3.3468
3.30045
3.25458
3.2166
3.18812
3.18211
3.14283
3.21151
3.06983
3.42009
2.3954
2.74353
2.99679
3.14597
3.22283
3.25538
3.25529
3.23791
3.21289
3.1827
3.1487
3.11476
3.08785
3.06578
3.06833
3.02692
3.11397
2.95588
3.31226
2.42676
2.65769
2.83413
2.95044
3.019
3.05404
3.06424
3.05807
3.04228
3.0205
2.9956
2.97074
2.95214
2.93632
2.94506
2.90351
2.98067
2.83872
3.16967
2.39401
2.55081
2.67975
2.7727
2.83298
2.86777
2.88294
2.88383
2.87515
2.86026
2.84212
2.82372
2.8109
2.80042
2.81032
2.77394
2.81576
2.71802
2.97687
2.32148
2.43678
2.53514
2.61007
2.66192
2.69436
2.71125
2.71615
2.7123
2.70219
2.68829
2.67368
2.66423
2.65766
2.66577
2.63882
2.6472
2.59382
2.7808
2.23523
2.32175
2.39775
2.45828
2.50231
2.53151
2.54829
2.55501
2.55383
2.54613
2.53354
2.51958
2.51093
2.50677
2.51395
2.49956
2.5036
2.47145
2.61172
2.13929
2.2061
2.2659
2.31497
2.35198
2.37756
2.39312
2.40011
2.39969
2.39172
2.37682
2.35979
2.34958
2.34711
2.35694
2.35607
2.38551
2.35476
2.52059
2.03816
2.09063
2.1382
2.17808
2.20899
2.23101
2.24478
2.25105
2.24979
2.23878
2.21767
2.19413
2.18097
2.18044
2.19616
2.20585
2.26709
2.24715
2.45676
1.93279
1.97464
2.01296
2.04564
2.07151
2.09033
2.10225
2.10742
2.10426
2.08797
2.05786
2.02631
2.01023
2.01186
2.03375
2.05179
2.11103
2.14497
2.47881
1.82438
1.85821
1.88941
1.91637
1.9381
1.95422
1.96461
1.96889
1.96373
1.94176
1.90295
1.86503
1.84693
1.84836
1.87382
1.8976
1.87889
1.9422
1.5639
1.71366
1.74126
1.76684
1.78921
1.80757
1.82152
1.83093
1.83507
1.82936
1.80481
1.76162
1.72182
1.70399
1.70452
1.7206
1.74531
1.64948
1.77971
1.53336
1.60112
1.62375
1.64482
1.66342
1.67897
1.6912
1.7001
1.70498
1.70147
1.6808
1.63939
1.60386
1.58715
1.58089
1.56534
1.57056
1.4316
1.5245
1.42076
1.48712
1.50572
1.52309
1.53856
1.55173
1.56246
1.57094
1.5768
1.57713
1.56426
1.53549
1.50728
1.49313
1.47955
1.42384
1.38457
1.27146
1.2291
1.29873
1.37198
1.38729
1.4016
1.41444
1.42552
1.4348
1.44255
1.4487
1.45197
1.44832
1.43401
1.41633
1.40555
1.39191
1.33676
1.26972
1.18291
1.07954
1.22436
1.256
1.2686
1.28039
1.291
1.30023
1.30805
1.31465
1.32006
1.32388
1.32462
1.3191
1.30798
1.2976
1.2876
1.25256
1.20256
1.15193
1.08026
1.21635
1.1394
1.14978
1.15948
1.1682
1.17579
1.18218
1.18748
1.19167
1.19454
1.19571
1.19301
1.18497
1.17665
1.1702
1.15648
1.1373
1.13053
1.12626
1.22224
1.02228
1.0308
1.03873
1.04583
1.05196
1.05704
1.06118
1.06436
1.06625
1.06675
1.06526
1.06106
1.05736
1.05583
1.05548
1.05825
1.07937
1.11502
1.1835
0.904571
0.911492
0.917873
0.923521
0.928348
0.932275
0.935448
0.937924
0.939288
0.939672
0.939641
0.938746
0.938911
0.94162
0.947649
0.95927
0.98668
1.02995
1.08036
0.786146
0.791648
0.796628
0.800962
0.804595
0.807462
0.809775
0.811586
0.812572
0.813069
0.813991
0.815136
0.817467
0.821669
0.829637
0.842871
0.866043
0.900727
0.935272
0.666923
0.671148
0.674861
0.678006
0.680545
0.682422
0.683891
0.684964
0.685499
0.685939
0.687036
0.688656
0.691612
0.695889
0.703475
0.714726
0.731013
0.754242
0.775324
0.54692
0.550003
0.552591
0.554666
0.556208
0.557176
0.55783
0.558159
0.558151
0.558246
0.558937
0.560135
0.562558
0.565765
0.571574
0.579448
0.58957
0.603536
0.614811
0.426238
0.428307
0.429895
0.430996
0.43162
0.43177
0.431657
0.431258
0.430587
0.430002
0.42982
0.430008
0.431067
0.432515
0.435815
0.440111
0.445587
0.453032
0.458441
0.304995
0.30616
0.306842
0.307051
0.30683
0.306218
0.305326
0.304116
0.302603
0.301047
0.299657
0.298463
0.297723
0.297151
0.297732
0.298804
0.300838
0.303924
0.306156
0.183303
0.183663
0.183513
0.182899
0.18186
0.180426
0.178633
0.176458
0.173954
0.171281
0.168543
0.165759
0.163018
0.160248
0.158054
0.156092
0.155103
0.154825
0.154936
0.0611961
0.0608398
0.0599093
0.058472
0.0565391
0.0541541
0.0513285
0.0480627
0.0444696
0.0406025
0.0364065
0.0318001
0.0268135
0.0214067
0.0162249
0.0107516
0.00659476
0.00289892
0.000870852
)
;

boundaryField
{
    leftWall
    {
        type            calculated;
        value           nonuniform List<scalar> 
50
(
655.978
596.198
532.729
466.273
397.924
328.523
258.816
188.438
93.3324
31.106
16.0872
11.6355
8.96334
7.10734
5.79583
4.96361
4.50553
4.25884
4.07365
3.8627
3.62809
3.44152
3.33279
3.24537
3.13028
2.98773
2.84064
2.69738
2.55848
2.42401
2.2935
2.16633
2.04193
1.91978
1.79941
1.68045
1.56256
1.44549
1.32901
1.21297
1.09723
0.981672
0.866222
0.750821
0.635419
0.519981
0.404495
0.288934
0.173416
0.0574346
)
;
    }
    rightWall
    {
        type            calculated;
        value           nonuniform List<scalar> 
50
(
848.442
814.054
777.67
744.453
719.026
704.58
708.473
715.688
731.011
648.009
453.718
234.997
97.7916
69.4887
15.4445
7.61004
6.16709
5.27694
4.10243
3.43222
3.58602
3.69105
3.66266
3.59926
3.51719
3.42009
3.31226
3.16967
2.97687
2.7808
2.61172
2.52059
2.45676
2.47881
1.5639
1.53336
1.42076
1.29873
1.22436
1.21635
1.22224
1.1835
1.08036
0.935272
0.775324
0.614811
0.458441
0.306156
0.154936
0.000870852
)
;
    }
    lowerWall
    {
        type            calculated;
        value           nonuniform List<scalar> 
62
(
685.407
686.499
689.931
696.27
708.717
730.496
760.465
794.191
829.061
863.672
894.905
919.492
934.199
937.596
930.62
916.007
895.504
874.558
856.724
846.709
850.883
861.494
864.723
835.35
773.225
710.419
647.478
584.47
521.352
458.805
399.793
364.34
371.407
383.543
402.265
984.827
925.66
846.623
757.905
675.322
606.369
547.308
488.527
1013.85
939.917
908.074
963.053
1090.25
1209.65
1279.08
1305.55
1255.93
1209.68
1201.63
1081.58
878.269
746.631
685.818
667.938
691.676
752.957
873.636
)
;
    }
    atmosphere
    {
        type            calculated;
        value           nonuniform List<scalar> 
46
(
0
0
0
0
0
0
0
0
0
0
0
0
0
0
0
0
0
0
0
0
0
0
0
0
0
0
0
-7.84517e-05
-0.000745998
-0.00209463
-0.00399475
-0.00644562
-0.00933266
-0.0126972
-0.0165566
-0.0207277
-0.0252319
-0.0302341
-0.0358856
-0.0421521
-0.0492533
-0.0560303
-0.0640205
-0.069783
-0.0759173
-0.0793136
)
;
    }
    defaultFaces
    {
        type            empty;
    }
}


// ************************************************************************* //
