/*--------------------------------*- C++ -*----------------------------------*\
  =========                 |
  \\      /  F ield         | OpenFOAM: The Open Source CFD Toolbox
   \\    /   O peration     | Website:  https://openfoam.org
    \\  /    A nd           | Version:  13
     \\/     M anipulation  |
\*---------------------------------------------------------------------------*/
FoamFile
{
    format      ascii;
    class       volScalarField;
    location    "0.8";
    object      p_rgh;
}
// * * * * * * * * * * * * * * * * * * * * * * * * * * * * * * * * * * * * * //

dimensions      [1 -1 -2 0 0 0 0];

internalField   nonuniform List<scalar> 
2268
(
685.407
686.499
689.931
696.27
708.717
730.496
760.465
794.191
829.061
863.672
894.905
919.492
934.199
937.596
930.62
916.007
895.504
874.558
856.724
846.709
850.883
861.494
864.723
684.487
685.007
687.986
693.689
705.257
727.553
759.017
793.625
829.111
864.506
897.078
922.539
937.397
939.976
932.27
917.68
896.517
873.622
850.698
840.202
843.751
854.585
861.508
679.876
680.044
683.258
688.834
699.987
723.134
756.253
792.456
829.164
865.927
899.982
926.963
942.421
944.46
935.264
919.888
900.536
872.583
847.752
836.375
839.244
850.594
857.558
672.278
672.365
676.155
681.63
692.156
716.163
752.151
790.894
829.373
868.141
904.651
933.925
950.291
951.258
939.565
921.512
901.401
878.886
855.369
843.46
843.764
849.646
853.473
662.789
662.754
667.106
672.639
683.132
708.837
748.095
789.407
829.701
871.04
910.899
943.496
961.089
960.275
944.779
922.842
900.281
878.176
857.939
846.063
844.3
845.584
849.334
652.246
651.757
656.616
662.842
674.63
702.754
744.801
787.854
829.884
874.498
918.658
956.004
975.347
971.878
950.782
923.456
897.702
874.872
855.382
843.522
840.555
841.247
845.072
641.397
639.947
645.44
653.377
667.901
698.506
741.24
784.548
828.692
877.943
929.461
971.952
993.723
986.326
957.168
922.767
893.417
869.693
850.508
839.019
835.834
836.778
841.371
629.879
628.663
634.185
644.791
662.898
693.746
730.397
779.462
825.055
880.147
940.012
991.406
1016.02
1002.34
962.163
919.042
886.291
862.341
843.279
832.526
829.736
831.596
841.212
1013.85
939.917
908.074
963.053
1090.25
1209.65
1279.08
1305.55
1255.93
1209.68
1201.63
1081.58
878.269
746.631
685.818
667.938
691.676
752.957
873.636
1013.35
916.609
878.804
943.382
1078.93
1204.36
1308.32
1327.89
1231.39
1158.63
1135.5
1020.25
819.452
716.144
670.421
643.17
658.361
730.76
888.48
993.305
879.745
845.992
913.175
1059.74
1190.72
1298.4
1310.95
1147.83
1072.88
1040.82
909.62
734.392
666.967
642.965
631.133
636.199
710.668
892.948
956.94
840.967
778.313
856.301
1038.43
1175.4
1258.94
1230.06
1032.38
985.288
958.525
773.776
635.626
616.529
616.528
603.885
617.6
668.699
892.249
936.695
825.857
760.144
843.445
1034.49
1158.4
1204.14
1073.91
884.508
851.512
851.01
632.063
511.928
554.104
585.303
577.413
572.555
675.953
924.092
925.851
824.323
760.704
865.674
1055.73
1156.12
1147.3
891.795
719.625
740.602
717.73
439.114
315.093
380.201
527.944
554.757
510.238
656.291
954.958
924.87
786.06
776.147
851.149
1025.33
1131.38
1074.74
690.627
523.95
609.33
588.216
279.511
294.743
329.578
354.287
389.478
362.064
604.2
986.529
911.14
802.367
835.421
774.02
956.21
1089.61
982.899
490.016
223.269
422.347
412.907
265.362
287.97
326.381
351.445
358.214
378.964
551.148
833.44
481.786
508.361
511.852
528.109
555.787
623.8
706.477
762.864
813.467
881.356
959.992
1029.96
1062.57
1034.65
968.673
907.508
870.566
846.94
829.596
819.234
817.342
820.722
829.13
163.841
108.484
130.829
178.846
262.61
357.268
435.475
516.586
647.483
800.627
950.613
1074.05
1141.71
1078
934.826
821.203
771.489
733.167
695.485
669.902
662.318
675.094
717.57
25.6875
20.8919
21.2513
23.6196
31.9169
55.5986
109.703
220.711
365.752
510.978
665.989
813.434
1061.32
1065.57
616.283
300.797
213.435
173.503
142.574
127.958
128.817
140.808
160.789
13.5341
11.6938
10.3167
9.36024
9.57818
14.4189
91.7235
167.032
146.367
127.35
372.967
699.554
869.224
880.739
405.618
98.4986
91.492
91.0631
91.8968
92.8737
94.4423
96.3393
93.4976
10.2818
9.24762
8.22189
7.36144
7.39468
12.442
13.9555
14.0111
14.336
12.0458
17.4948
43.5083
181.65
368.796
441.969
284.07
92.8982
91.1061
89.9474
89.6952
109.761
153.18
156.853
8.35623
7.65125
6.77689
5.89403
5.19022
4.8346
4.5311
4.55954
4.32912
4.3196
4.55089
5.52558
8.20531
44.0592
327.962
355.02
274.186
89.9691
90.1428
88.8266
89.7766
288.044
507.024
7.10906
6.52789
5.83435
5.12875
4.58394
4.20601
4.04371
4.01908
4.03094
4.11835
4.16717
4.3238
4.80616
6.2334
86.0444
339.68
363.459
299.281
108.037
99.3359
104.345
292.06
558.081
6.38422
5.84499
5.36093
4.85895
4.54915
4.35692
4.25309
4.18583
4.12619
4.10214
4.11829
4.18707
4.32774
4.57186
5.25289
47.7408
357.115
435.908
473.123
355.038
240.936
453.909
588.655
6.04449
5.52674
5.16299
4.80942
4.60213
4.48466
4.41369
4.35362
4.28026
4.20534
4.18137
4.22741
4.30898
4.42934
4.50815
4.56716
5.18582
211.738
482.317
508.094
516.501
512.456
512.034
5.92011
5.43526
5.10107
4.81937
4.66978
4.59316
4.53998
4.4842
4.41647
4.34862
4.31162
4.32656
4.37536
4.41684
4.44292
4.45363
4.53611
4.19989
3.5381
201.081
273.19
93.3742
6.02072
5.8593
5.47557
5.11989
4.85903
4.74789
4.70439
4.66501
4.61023
4.54671
4.48731
4.44651
4.43418
4.44099
4.44159
4.42173
4.38627
4.36505
4.34343
4.14821
3.52499
3.09036
3.71351
4.22695
5.77335
5.56893
5.24996
4.99544
4.88377
4.84123
4.79749
4.73529
4.66781
4.6066
4.55816
4.52577
4.50441
4.48062
4.43524
4.3897
4.37974
4.35549
4.17742
3.80599
3.59734
3.66322
3.68988
5.6639
5.63495
5.46019
5.23572
5.09056
5.00844
4.93593
4.85626
4.7782
4.70883
4.65002
4.60208
4.56124
4.52131
4.47241
4.41446
4.51704
4.81372
4.2429
3.73362
3.57202
3.77283
3.56508
5.60251
5.674
5.63645
5.46322
5.29373
5.16829
5.06326
4.96611
4.87826
4.80077
4.73282
4.67308
4.61746
4.56085
4.49829
4.41928
4.35016
4.97843
5.22777
3.57097
3.08873
3.94978
4.76543
5.61898
5.70764
5.71076
5.58235
5.42203
5.2823
5.1628
5.05798
4.96583
4.88403
4.81038
4.74267
4.67618
4.60513
4.52304
4.41787
4.27354
4.45243
5.73925
5.04076
3.0024
2.66788
3.36983
5.65676
5.71219
5.7025
5.60701
5.47567
5.34824
5.2336
5.13155
5.0407
4.95857
4.88282
4.81098
4.73868
4.65985
4.56733
4.44808
4.28697
4.07468
4.97325
6.07135
4.99101
3.26316
3.61718
5.66686
5.68041
5.66342
5.59201
5.49061
5.3851
5.28436
5.19102
5.10545
5.02625
4.95164
4.87946
4.80635
4.72747
4.63654
4.52321
4.37329
4.17468
3.93606
5.5779
6.64121
6.40038
6.34149
5.6495
5.64601
5.62706
5.57127
5.49352
5.40862
5.32314
5.24075
5.16287
5.08915
5.01857
4.94963
4.88007
4.80661
4.72505
4.62923
4.50982
4.35412
4.15978
4.03566
4.02629
4.65385
6.83414
5.62761
5.62174
5.60095
5.55562
5.49493
5.42645
5.35487
5.28366
5.2146
5.14806
5.08364
5.02054
4.95749
4.89272
4.82395
4.7484
4.66225
4.56052
4.43911
4.31118
4.2132
4.26502
4.3131
5.60954
5.60432
5.58343
5.54605
5.4976
5.44194
5.38235
5.32163
5.26159
5.20296
5.14588
5.09011
5.03516
4.98036
4.92493
4.86816
4.80962
4.74997
4.69123
4.63965
4.61341
4.63689
4.72106
5.59584
5.59143
5.57237
5.54141
5.50214
5.45667
5.4072
5.35595
5.30452
5.25387
5.20446
5.15649
5.11001
5.06508
5.02178
4.98051
4.94214
4.90872
4.88414
4.87331
4.8842
4.92524
5.00519
5.58656
5.58281
5.56627
5.54063
5.50856
5.47131
5.43036
5.38743
5.34393
5.30086
5.25887
5.21845
5.18001
5.14397
5.11088
5.08151
5.05703
5.03926
5.03103
5.03575
5.05753
5.10276
5.17219
5.58125
5.57811
5.56407
5.54286
5.51662
5.48608
5.45228
5.41658
5.38017
5.34403
5.3089
5.2754
5.24413
5.21569
5.19079
5.1703
5.15534
5.14735
5.14825
5.1604
5.18642
5.22929
5.28784
5.57927
5.57673
5.56495
5.54746
5.52598
5.50098
5.47318
5.44368
5.41351
5.38354
5.35452
5.32715
5.30206
5.27993
5.26148
5.24755
5.2391
5.23727
5.24337
5.25885
5.28501
5.32258
5.37074
5.58006
5.57806
5.56825
5.55387
5.53633
5.5159
5.49314
5.46893
5.44414
5.41954
5.39587
5.37377
5.35389
5.3369
5.32347
5.31432
5.31025
5.3121
5.32071
5.33686
5.36108
5.39351
5.43325
5.58311
5.58156
5.57344
5.56165
5.54737
5.53074
5.51219
5.49245
5.47224
5.45226
5.43314
5.41552
5.39997
5.3871
5.37752
5.37182
5.37061
5.3745
5.384
5.39951
5.42121
5.44896
5.48182
5.58794
5.58676
5.58007
5.57044
5.55886
5.54539
5.53035
5.51435
5.49801
5.48193
5.46666
5.45276
5.44075
5.43117
5.42451
5.42126
5.4219
5.42682
5.43633
5.45062
5.46969
5.49333
5.52055
5.59417
5.59329
5.5878
5.57996
5.57062
5.55976
5.54764
5.53476
5.52165
5.50882
5.49675
5.48592
5.47679
5.46979
5.46534
5.46384
5.46562
5.47096
5.48003
5.4929
5.50944
5.52935
5.55205
5.60148
5.60083
5.59634
5.58999
5.58249
5.57378
5.56408
5.55379
5.54336
5.53323
5.5238
5.51547
5.50864
5.50366
5.50088
5.5006
5.50307
5.50846
5.51687
5.52828
5.54254
5.55933
5.57824
5.60959
5.60912
5.60546
5.60034
5.59436
5.58743
5.57971
5.57156
5.56335
5.55543
5.54815
5.54186
5.53685
5.53345
5.53191
5.53247
5.5353
5.54053
5.54818
5.55821
5.57045
5.58464
5.60042
5.61831
5.61795
5.61499
5.61089
5.60615
5.60067
5.59459
5.58819
5.5818
5.57569
5.57016
5.56549
5.56193
5.55974
5.55911
5.56023
5.56322
5.56816
5.57504
5.5838
5.59428
5.60625
5.61944
5.62747
5.62716
5.6248
5.62152
5.6178
5.61352
5.60877
5.60381
5.5989
5.59426
5.59013
5.58675
5.58433
5.58305
5.58308
5.58456
5.58757
5.59215
5.59829
5.6059
5.61485
5.62494
5.6359
5.63692
5.63665
5.63478
5.63217
5.62929
5.62598
5.62232
5.61853
5.61481
5.61135
5.60835
5.60599
5.60443
5.60384
5.60434
5.60602
5.60896
5.61316
5.6186
5.6252
5.63283
5.64133
5.65049
5.64656
5.64633
5.64485
5.64279
5.64059
5.63806
5.63529
5.63244
5.62968
5.62717
5.62505
5.62349
5.6226
5.62252
5.62333
5.62511
5.6279
5.63171
5.63651
5.64221
5.64871
5.65588
5.66354
5.6563
5.65613
5.65496
5.65334
5.65169
5.6498
5.64773
5.64564
5.64365
5.64188
5.64047
5.63951
5.63912
5.6394
5.6404
5.6422
5.64481
5.64823
5.65242
5.65733
5.66285
5.66887
5.67525
5.6661
5.666
5.66507
5.6638
5.6626
5.6612
5.6597
5.65821
5.65682
5.65564
5.65476
5.65426
5.65423
5.65475
5.65585
5.65759
5.65997
5.663
5.66663
5.67081
5.67545
5.68047
5.68572
5.67589
5.6759
5.67514
5.67416
5.6733
5.67229
5.67124
5.67022
5.6693
5.66857
5.66808
5.66791
5.66813
5.66877
5.66989
5.6715
5.67362
5.67624
5.67932
5.68281
5.68665
5.69074
5.69499
5.68565
5.68579
5.68515
5.6844
5.68381
5.68311
5.68241
5.68174
5.68118
5.68077
5.68056
5.68061
5.68096
5.68164
5.68269
5.68412
5.68593
5.68812
5.69065
5.69348
5.69655
5.69979
5.70312
5.69535
5.69565
5.69508
5.69452
5.69414
5.69367
5.69324
5.69284
5.69252
5.69234
5.69231
5.69247
5.69286
5.6935
5.69441
5.6956
5.69706
5.69879
5.70077
5.70295
5.70529
5.70774
5.71023
5.70499
5.70541
5.7049
5.70453
5.70431
5.70401
5.70377
5.70356
5.70342
5.70337
5.70343
5.70363
5.70398
5.70451
5.70521
5.7061
5.70718
5.70844
5.70986
5.71141
5.71306
5.71477
5.71648
5.71466
5.71512
5.71466
5.71446
5.71435
5.7142
5.71409
5.714
5.71396
5.71398
5.71405
5.71422
5.71447
5.71481
5.71527
5.71583
5.71649
5.71726
5.71811
5.71904
5.72003
5.72104
5.72205
5.72388
5.72438
5.72422
5.72418
5.72415
5.7241
5.72409
5.72408
5.72409
5.72413
5.72418
5.72427
5.72438
5.72453
5.7247
5.72491
5.72516
5.72543
5.72572
5.72604
5.72637
5.72671
5.72702
834.705
841.332
852.96
871.178
706.665
692.833
662.072
630.116
147.703
138.495
124.644
126.623
87.6969
86.6147
86.5399
87.3668
87.3996
87.0802
87.6119
87.8409
244.143
113.601
93.0472
90.5163
559.84
552.584
302.047
129.145
596.527
595.966
591.232
577.813
433.85
468.664
573.178
563.857
5.27343
5.30486
47.1165
296.726
4.28249
4.25664
3.82476
2.96387
3.70407
3.74986
3.78705
3.81668
3.42411
3.49929
3.67026
3.9516
5.18474
4.2375
4.38518
4.39416
5.50377
5.77898
6.1763
6.62984
4.277
6.20175
6.5497
6.98043
6.52705
6.74803
7.0594
6.21533
7.29837
6.97855
5.29021
4.60291
4.47287
4.59924
4.74571
4.90564
4.83947
4.9372
5.04351
5.15422
5.10082
5.17091
5.24153
5.31236
5.2429
5.29362
5.34515
5.39686
5.34292
5.38125
5.41991
5.45845
5.41383
5.44331
5.47298
5.50261
5.46761
5.49085
5.5142
5.53746
5.50949
5.52803
5.54665
5.5652
5.54297
5.55792
5.57295
5.58793
5.57042
5.5826
5.59483
5.60703
5.59336
5.60334
5.61336
5.62336
5.61289
5.62109
5.62931
5.63753
5.62975
5.63649
5.64326
5.65001
5.64447
5.65005
5.65564
5.66121
5.6576
5.66222
5.66684
5.67143
5.66943
5.67325
5.67707
5.68086
5.68012
5.68326
5.68639
5.6895
5.68969
5.69225
5.69478
5.69728
5.69816
5.70018
5.70218
5.70415
5.70556
5.70712
5.70865
5.71014
5.71203
5.71317
5.71428
5.71536
5.71771
5.71848
5.71922
5.71994
5.72275
5.72319
5.72361
5.72399
5.72724
5.72736
5.72747
5.72756
889.675
865.686
824.76
678.854
927.533
1008.87
755.285
147.239
29.7347
116.184
220.778
233.187
275.376
320.935
347.225
366.312
542.926
738.474
899.655
743.36
673.294
408.085
435.821
936.805
997.657
518.717
25.3889
15.4071
12.8561
50.0733
239.108
355.776
329.871
341.486
386.214
664.742
978.417
1171.4
224.987
485.999
750.247
799.368
999.462
1062.87
317.579
9.78059
9.01707
7.1988
23.2489
203.298
321.774
414.887
470.693
553.834
772.561
1015.54
1144.61
91.3864
182.448
647.93
1054.04
1174.34
997.546
98.8376
5.344
5.37285
3.63339
2.36454
2.44943
77.8972
263.733
408.186
467.197
527.109
862.058
1036.48
86.6154
82.8773
200.593
974.923
1158.21
976.011
71.0013
3.69428
3.25431
1.87931
2.39846
2.92244
3.89581
3.86132
4.66606
7.89783
17.7926
224.536
1008.89
88.4924
83.4182
109.497
790.641
1144.57
993.449
104.022
2.27341
1.16103
-0.0308155
14.4779
22.5922
3.59363
3.57539
3.91288
4.78333
6.89528
40.1099
886.739
101.866
83.3623
84.6993
616.026
1197.24
1048.47
157.135
1.16631
-0.70181
-2.19439
1.41691
26.3388
11.2189
3.47567
3.52852
3.86349
4.61815
18.9464
83.1423
320.199
81.851
80.9284
285.54
1082.34
1182.41
158.674
1.69951
-1.48111
-2.81055
-1.68711
19.7678
26.0134
13.4736
3.52035
3.61117
4.18023
5.89266
9.24714
553.195
286.658
81.7357
89.3322
314.547
947.402
78.0455
10.4103
-0.247201
-1.72572
-0.0254811
3.23876
28.3141
21.5979
5.39998
3.8867
4.35835
6.47037
8.50671
414.658
438.132
392.404
224.177
222.553
409.428
595.574
90.5122
5.51514
1.38741
3.17754
5.48635
18.3722
27.7816
8.49858
4.30486
4.63322
7.15744
25.6537
3.0995
131.359
924.915
1117.01
1119.27
1162.23
1355.61
1089.03
347.473
5.7983
7.98454
17.6866
94.6499
53.0003
4.66093
4.41172
4.62228
5.10727
87.8911
4.21392
5.4634
6.27241
253.734
1116.98
1299.24
1353.84
1332.59
1270.86
719.719
499.589
702.036
603.588
51.7463
4.82264
4.63114
4.79721
4.35816
104.62
4.62073
5.44431
5.9531
6.08731
6.80808
411.747
1041.82
1259.08
1259.33
1252
1140.56
844.513
471.156
30.8822
5.30114
5.05276
5.17565
5.0058
111.568
4.9226
5.53825
6.0158
6.26557
6.43151
6.36146
39.3814
180.668
293.478
377.116
231.785
50.1367
22.7052
21.1842
7.06888
5.41971
5.46544
5.36507
118.346
6.15071
5.5298
6.02338
6.32408
6.44624
6.44424
6.35463
7.29397
6.66166
6.2202
6.07846
5.89543
5.74091
5.7618
5.77166
5.64692
5.65025
5.55925
125.451
5.95007
5.51278
5.96465
6.22927
6.33044
6.35386
6.3038
6.21681
6.14365
6.0727
5.97161
5.91469
5.83
5.80233
5.7912
5.73505
5.75793
5.661
132.264
4.83954
5.47549
5.91358
6.13008
6.21929
6.23891
6.20222
6.13947
6.09373
6.04642
5.9864
5.92369
5.86701
5.83589
5.82549
5.78361
5.82723
5.71026
138.908
4.99602
5.48055
5.82854
6.01772
6.10849
6.13602
6.11728
6.08453
6.04848
6.00859
5.96226
5.91636
5.87856
5.85327
5.84717
5.80568
5.87371
5.73201
145.486
5.18237
5.5305
5.78376
5.93294
6.0098
6.04258
6.04232
6.02489
5.99986
5.96967
5.93567
5.90173
5.87541
5.85662
5.85915
5.81565
6.00546
5.74451
151.991
5.33893
5.56986
5.74631
5.86262
5.93117
5.9662
5.97641
5.97024
5.95445
5.93267
5.90776
5.88291
5.86431
5.85096
5.86127
5.81694
6.91567
5.75475
158.36
5.43137
5.58818
5.71713
5.81008
5.87035
5.90513
5.9203
5.92119
5.91251
5.89762
5.87948
5.86108
5.84826
5.83778
5.85125
5.81267
6.95494
5.75989
164.513
5.48403
5.59934
5.69769
5.77262
5.82447
5.85691
5.87381
5.8787
5.87486
5.86475
5.85085
5.83624
5.82678
5.82022
5.8298
5.8021
6.9567
5.758
170.399
5.52297
5.60949
5.6855
5.74603
5.79005
5.81926
5.83604
5.84276
5.84158
5.83388
5.82129
5.80733
5.79868
5.79452
5.8024
5.78803
6.10657
5.75998
175.977
5.55223
5.61904
5.67884
5.72791
5.76492
5.79051
5.80606
5.81306
5.81263
5.80467
5.78977
5.77274
5.76252
5.76006
5.77045
5.76981
5.79923
5.76849
181.611
5.57629
5.62876
5.67633
5.71622
5.74713
5.76915
5.78291
5.78919
5.78792
5.77716
5.756
5.73232
5.71922
5.72014
5.7354
5.74476
5.80601
5.78611
185.164
5.59612
5.63797
5.67629
5.70897
5.73484
5.75366
5.76558
5.77075
5.76769
5.75433
5.72396
5.68988
5.67452
5.67762
5.69878
5.71599
5.79074
5.8094
92.6347
5.6129
5.64673
5.67793
5.70489
5.72663
5.74275
5.75314
5.75741
5.75499
5.7339
5.6951
5.65389
5.6365
5.6394
5.66365
5.68703
5.792
5.73455
5.38398
5.62738
5.65497
5.68056
5.70292
5.72129
5.73524
5.74465
5.74917
5.74681
5.72226
5.67593
5.63572
5.61801
5.62082
5.6357
5.73434
5.787
6.16047
5.64901
5.64003
5.66266
5.68373
5.70233
5.71789
5.73012
5.73901
5.74548
5.74424
5.72299
5.67848
5.64296
5.62625
5.62109
5.78429
5.9512
5.79878
8.89722
5.87834
5.65123
5.66983
5.6872
5.70267
5.71583
5.72657
5.73505
5.74223
5.7452
5.72927
5.6998
5.67158
5.65753
5.64475
5.71509
5.77505
5.74558
8.83035
6.07967
5.66128
5.67659
5.6909
5.70374
5.71482
5.72411
5.73185
5.738
5.74424
5.73918
5.73388
5.71443
5.71227
5.69129
5.63968
5.56549
5.53162
8.90932
6.03075
5.6705
5.6831
5.69489
5.7055
5.71473
5.72255
5.72915
5.73456
5.73838
5.74022
5.78218
5.83027
5.84764
5.82568
5.76047
5.62385
5.56669
6.42146
5.76834
5.67909
5.68947
5.69917
5.7079
5.71548
5.72187
5.72717
5.73137
5.73423
5.7354
5.7762
5.86371
5.85593
5.84894
5.80977
5.68856
5.67022
5.66595
5.76194
5.68717
5.69569
5.70362
5.71071
5.71685
5.72193
5.72606
5.72925
5.73113
5.73164
5.73014
5.77655
5.81569
5.76
5.72037
5.72314
5.74426
5.7799
5.84839
5.69465
5.70157
5.70795
5.7136
5.71843
5.72236
5.72553
5.72801
5.72937
5.72975
5.72972
5.72883
5.72899
5.7317
5.73773
5.74935
5.77676
5.82004
5.87044
5.70142
5.70692
5.7119
5.71624
5.71987
5.72274
5.72505
5.72686
5.72785
5.72835
5.72927
5.73041
5.73274
5.73694
5.74491
5.75815
5.78132
5.816
5.85055
5.70739
5.71162
5.71533
5.71848
5.72101
5.72289
5.72436
5.72543
5.72597
5.72641
5.72751
5.72913
5.73208
5.73636
5.74395
5.7552
5.77148
5.79471
5.81579
5.71258
5.71567
5.71826
5.72033
5.72187
5.72284
5.72349
5.72382
5.72382
5.72391
5.7246
5.7258
5.72822
5.73143
5.73724
5.74511
5.75523
5.7692
5.78048
5.7171
5.71917
5.72075
5.72186
5.72248
5.72263
5.72252
5.72212
5.72145
5.72086
5.72068
5.72087
5.72193
5.72337
5.72667
5.73097
5.73645
5.74389
5.7493
5.72105
5.72221
5.7229
5.7231
5.72288
5.72227
5.72138
5.72017
5.71866
5.7171
5.71571
5.71452
5.71378
5.7132
5.71379
5.71486
5.71689
5.71998
5.72221
5.72455
5.72491
5.72476
5.72415
5.72311
5.72167
5.71988
5.71771
5.7152
5.71253
5.70979
5.70701
5.70427
5.7015
5.6993
5.69734
5.69635
5.69607
5.69618
5.72764
5.72728
5.72635
5.72491
5.72298
5.7206
5.71777
5.71451
5.71091
5.70705
5.70285
5.69824
5.69326
5.68785
5.68267
5.67719
5.67304
5.66934
5.66731
)
;

boundaryField
{
    leftWall
    {
        type            fixedFluxPressure;
        gradient        uniform 0;
        value           nonuniform List<scalar> 
50
(
685.407
684.487
679.876
672.278
662.789
652.246
641.397
629.879
481.786
163.841
25.6875
13.5341
10.2818
8.35623
7.10906
6.38422
6.04449
5.92011
5.8593
5.77335
5.6639
5.60251
5.61898
5.65676
5.66686
5.6495
5.62761
5.60954
5.59584
5.58656
5.58125
5.57927
5.58006
5.58311
5.58794
5.59417
5.60148
5.60959
5.61831
5.62747
5.63692
5.64656
5.6563
5.6661
5.67589
5.68565
5.69535
5.70499
5.71466
5.72388
)
;
    }
    rightWall
    {
        type            fixedFluxPressure;
        gradient        uniform 0;
        value           nonuniform List<scalar> 
50
(
873.636
888.48
892.948
892.249
924.092
954.958
986.529
833.44
899.655
1171.4
1144.61
1036.48
1008.89
886.739
83.1423
9.24714
8.50671
25.6537
87.8911
104.62
111.568
118.346
125.451
132.264
138.908
145.486
151.991
158.36
164.513
170.399
175.977
181.611
185.164
92.6347
5.38398
5.64901
5.87834
6.07967
6.03075
5.76834
5.76194
5.84839
5.87044
5.85055
5.81579
5.78048
5.7493
5.72221
5.69618
5.66731
)
;
    }
    lowerWall
    {
        type            fixedFluxPressure;
        gradient        uniform 0;
        value           nonuniform List<scalar> 
62
(
685.407
686.499
689.931
696.27
708.717
730.496
760.465
794.191
829.061
863.672
894.905
919.492
934.199
937.596
930.62
916.007
895.504
874.558
856.724
846.709
850.883
861.494
864.723
864.723
861.508
857.558
853.473
849.334
845.072
841.371
841.212
834.705
841.332
852.96
871.178
1013.85
1013.35
993.305
956.94
936.695
925.851
924.87
911.14
1013.85
939.917
908.074
963.053
1090.25
1209.65
1279.08
1305.55
1255.93
1209.68
1201.63
1081.58
878.269
746.631
685.818
667.938
691.676
752.957
873.636
)
;
    }
    atmosphere
    {
        type            prghTotalPressure;
        rho             rho;
        psi             none;
        gamma           1;
        p0              uniform 0;
        value           nonuniform List<scalar> 
46
(
5.72904
5.72904
5.72904
5.72904
5.72904
5.72904
5.72904
5.72904
5.72904
5.72904
5.72904
5.72904
5.72904
5.72904
5.72904
5.72904
5.72904
5.72904
5.72904
5.72904
5.72904
5.72904
5.72904
5.72904
5.72904
5.72904
5.72904
5.72896
5.72829
5.72695
5.72505
5.72259
5.71971
5.71634
5.71248
5.70831
5.70381
5.69881
5.69315
5.68689
5.67979
5.67301
5.66502
5.65926
5.65312
5.64973
)
;
        rho             rho;
    }
    defaultFaces
    {
        type            empty;
    }
}


// ************************************************************************* //
