/*--------------------------------*- C++ -*----------------------------------*\
  =========                 |
  \\      /  F ield         | OpenFOAM: The Open Source CFD Toolbox
   \\    /   O peration     | Website:  https://openfoam.org
    \\  /    A nd           | Version:  13
     \\/     M anipulation  |
\*---------------------------------------------------------------------------*/
FoamFile
{
    format      ascii;
    class       surfaceScalarField;
    location    "0.8";
    object      phi;
}
// * * * * * * * * * * * * * * * * * * * * * * * * * * * * * * * * * * * * * //

dimensions      [0 3 -1 0 0 0 0];

internalField   nonuniform List<scalar> 
4432
(
-4.73707e-06
4.73707e-06
-1.00887e-05
5.3516e-06
-1.51884e-05
5.09969e-06
-2.02099e-05
5.02155e-06
-2.40933e-05
3.88342e-06
-2.50549e-05
9.61606e-07
-2.34517e-05
-1.60321e-06
-2.14054e-05
-2.04636e-06
-2.0275e-05
-1.13033e-06
-1.99287e-05
-3.46396e-07
-1.98829e-05
-4.57675e-08
-1.98248e-05
-5.81398e-08
-1.96643e-05
-1.60426e-07
-1.93107e-05
-3.53596e-07
-1.83754e-05
-9.35316e-07
-1.68776e-05
-1.49782e-06
-1.7366e-05
4.88378e-07
-2.15989e-05
4.23295e-06
-2.61574e-05
4.55847e-06
-2.50735e-05
-1.08388e-06
-1.82288e-05
-6.84469e-06
-8.65176e-06
-9.57708e-06
-8.65177e-06
-7.23057e-06
1.19676e-05
-1.36331e-05
1.17542e-05
-1.89745e-05
1.04411e-05
-2.34971e-05
9.54409e-06
-2.62098e-05
6.59619e-06
-2.62763e-05
1.0281e-06
-2.4239e-05
-3.6405e-06
-2.18414e-05
-4.44394e-06
-2.04789e-05
-2.49293e-06
-2.00589e-05
-7.66315e-07
-1.98466e-05
-2.58123e-07
-1.9376e-05
-5.28738e-07
-1.85785e-05
-9.57925e-07
-1.78353e-05
-1.09681e-06
-1.79241e-05
-8.46501e-07
-1.95394e-05
1.17443e-07
-2.20444e-05
2.99336e-06
-2.34622e-05
5.6508e-06
-2.14443e-05
2.54057e-06
-1.67769e-05
-5.75131e-06
-1.12894e-05
-1.23322e-05
-5.3818e-06
-1.54847e-05
-1.40336e-05
-6.88597e-06
1.88536e-05
-1.27085e-05
1.75767e-05
-1.78707e-05
1.56033e-05
-2.27318e-05
1.44052e-05
-2.61302e-05
9.99454e-06
-2.66859e-05
1.58386e-06
-2.48747e-05
-5.45177e-06
-2.26196e-05
-6.69901e-06
-2.12329e-05
-3.87964e-06
-2.07032e-05
-1.29597e-06
-2.029e-05
-6.71399e-07
-1.93058e-05
-1.51287e-06
-1.75418e-05
-2.72197e-06
-1.5345e-05
-3.29366e-06
-1.35997e-05
-2.59176e-06
-1.31548e-05
-3.27448e-07
-1.3186e-05
3.02455e-06
-1.17824e-05
4.24718e-06
-8.50364e-06
-7.38181e-07
-4.95072e-06
-9.30423e-06
-2.54377e-06
-1.47391e-05
-7.66504e-07
-1.7262e-05
-1.48001e-05
-5.68254e-06
2.45361e-05
-1.08534e-05
2.27476e-05
-1.57963e-05
2.05461e-05
-2.04839e-05
1.90928e-05
-2.37023e-05
1.32129e-05
-2.4567e-05
2.4486e-06
-2.36832e-05
-6.33562e-06
-2.26973e-05
-7.68484e-06
-2.21156e-05
-4.46139e-06
-2.18767e-05
-1.5348e-06
-2.15954e-05
-9.52727e-07
-2.06147e-05
-2.49358e-06
-1.85795e-05
-4.75724e-06
-1.56479e-05
-6.22523e-06
-1.2328e-05
-5.9117e-06
-8.98012e-06
-3.67529e-06
-5.40353e-06
-5.5205e-07
-1.58175e-06
4.25397e-07
1.55472e-06
-3.87465e-06
3.35138e-06
-1.11009e-05
2.95092e-06
-1.43387e-05
1.92784e-06
-1.62389e-05
-1.28722e-05
-4.09669e-06
2.86328e-05
-8.33636e-06
2.69873e-05
-1.24413e-05
2.46511e-05
-1.60434e-05
2.26949e-05
-1.8311e-05
1.54805e-05
-1.92906e-05
3.42823e-06
-2.00755e-05
-5.55067e-06
-2.1457e-05
-6.30333e-06
-2.27069e-05
-3.21156e-06
-2.3291e-05
-9.50666e-07
-2.32118e-05
-1.03199e-06
-2.21631e-05
-3.54227e-06
-1.98816e-05
-7.03871e-06
-1.66096e-05
-9.49721e-06
-1.28527e-05
-9.66862e-06
-8.7479e-06
-7.7801e-06
-4.03902e-06
-5.26094e-06
6.36508e-07
-4.25014e-06
3.84672e-06
-7.08486e-06
4.64582e-06
-1.19e-05
3.65723e-06
-1.335e-05
2.30288e-06
-1.48846e-05
-1.05693e-05
-2.03138e-06
3.06642e-05
-4.83002e-06
2.97859e-05
-7.70891e-06
2.753e-05
-9.94254e-06
2.49285e-05
-1.10915e-05
1.66295e-05
-1.22493e-05
4.58602e-06
-1.5143e-05
-2.65693e-06
-1.93802e-05
-2.06617e-06
-2.29206e-05
3.28817e-07
-2.47523e-05
8.8107e-07
-2.50855e-05
-6.98798e-07
-2.39168e-05
-4.71098e-06
-2.11581e-05
-9.79738e-06
-1.7296e-05
-1.33594e-05
-1.3165e-05
-1.37996e-05
-9.12671e-06
-1.18184e-05
-4.92503e-06
-9.46263e-06
-7.83737e-07
-8.39142e-06
1.93582e-06
-9.80441e-06
2.94418e-06
-1.29083e-05
2.5343e-06
-1.29402e-05
1.9196e-06
-1.42699e-05
-8.64975e-06
1.10238e-07
3.0554e-05
-1.03187e-06
3.0928e-05
-2.49485e-06
2.89929e-05
-3.13146e-06
2.55651e-05
-3.00453e-06
1.65025e-05
-4.92302e-06
6.5045e-06
-1.08567e-05
3.2767e-06
-1.77652e-05
4.84238e-06
-2.31652e-05
5.72881e-06
-2.63505e-05
4.06638e-06
-2.72511e-05
2.01763e-07
-2.59703e-05
-5.9917e-06
-2.24819e-05
-1.32859e-05
-1.76089e-05
-1.82323e-05
-1.27603e-05
-1.86482e-05
-8.58316e-06
-1.59956e-05
-4.72083e-06
-1.33249e-05
-1.13571e-06
-1.19765e-05
1.40011e-06
-1.23402e-05
2.66038e-06
-1.41686e-05
2.84803e-06
-1.31278e-05
2.3125e-06
-1.37343e-05
-6.33725e-06
2.47933e-06
2.80747e-05
4.13392e-06
2.92735e-05
5.43626e-06
2.76906e-05
6.52445e-06
2.44769e-05
5.2981e-06
1.77289e-05
-7.5295e-07
1.25555e-05
-1.00857e-05
1.26095e-05
-1.78337e-05
1.25904e-05
-2.35576e-05
1.14527e-05
-2.76011e-05
8.10992e-06
-2.93221e-05
1.92279e-06
-2.78229e-05
-7.49092e-06
-2.2736e-05
-1.83728e-05
-1.61008e-05
-2.48676e-05
-1.05116e-05
-2.42373e-05
-6.47589e-06
-2.00313e-05
-2.98739e-06
-1.68134e-05
2.65025e-07
-1.52289e-05
2.84613e-06
-1.49213e-05
4.13199e-06
-1.54545e-05
4.59896e-06
-1.35948e-05
3.52459e-06
-1.266e-05
-2.81266e-06
-1.73718e-05
1.73718e-05
-4.25192e-05
2.51474e-05
-5.19066e-05
9.38738e-06
-4.48695e-05
-7.03715e-06
-2.82995e-05
-1.65699e-05
-1.00543e-05
-1.82453e-05
-1.08091e-05
7.54873e-07
-2.6566e-05
1.57568e-05
-6.72483e-05
4.06823e-05
-9.7306e-05
3.00577e-05
-6.44399e-05
-3.28661e-05
-8.93948e-06
-5.55004e-05
1.76114e-05
-2.65509e-05
3.1672e-05
-1.40605e-05
3.80795e-05
-6.40752e-06
3.26103e-05
5.46916e-06
1.70129e-05
1.55975e-05
6.47078e-06
1.05421e-05
6.47077e-06
-2.59105e-05
4.32823e-05
-4.25965e-05
4.18334e-05
-4.22728e-05
9.06366e-06
-3.35526e-05
-1.57573e-05
-1.86764e-05
-3.14462e-05
-7.58004e-06
-2.93416e-05
-2.56154e-05
1.87903e-05
-7.60616e-05
6.6203e-05
-0.000120373
8.49936e-05
-9.36529e-05
3.33767e-06
-3.01971e-05
-9.63219e-05
7.30972e-06
-9.30073e-05
2.75872e-05
-4.68284e-05
4.36281e-05
-3.01014e-05
5.6523e-05
-1.93025e-05
6.70194e-05
-5.02715e-06
5.61355e-05
2.64813e-05
1.99693e-05
4.67083e-05
2.64401e-05
-2.10442e-05
6.43265e-05
-2.93695e-05
5.01587e-05
-2.76999e-05
7.39407e-06
-2.16866e-05
-2.17707e-05
-1.19013e-05
-4.12315e-05
-9.38309e-06
-3.18597e-05
-4.49585e-05
5.43657e-05
-0.000104652
0.000125896
-0.000120745
0.000101087
-7.1562e-05
-4.58452e-05
-2.82461e-05
-0.000139638
-1.00665e-05
-0.000111187
7.62514e-06
-6.45201e-05
2.14466e-05
-4.39228e-05
3.36707e-05
-3.15266e-05
4.71895e-05
-1.85459e-05
5.45953e-05
1.90755e-05
2.48524e-05
7.64512e-05
5.12924e-05
-1.31914e-05
7.75179e-05
-1.73587e-05
5.4326e-05
-1.57112e-05
5.74658e-06
-8.30277e-06
-2.91791e-05
-4.75068e-06
-4.47836e-05
-1.46444e-05
-2.1966e-05
-6.19055e-05
0.000101627
-0.000117073
0.000181064
-0.000110449
9.44632e-05
-6.63949e-05
-8.98995e-05
-4.17092e-05
-0.000164324
-2.59576e-05
-0.000126938
-1.05488e-05
-7.9929e-05
3.03905e-06
-5.75106e-05
2.05519e-05
-4.90395e-05
3.31174e-05
-3.11114e-05
4.04556e-05
1.17372e-05
2.32032e-05
9.37037e-05
7.44957e-05
-3.44042e-06
8.09583e-05
-2.08246e-06
5.29681e-05
2.11855e-06
1.54556e-06
6.9727e-06
-3.40333e-05
1.4625e-06
-3.92734e-05
-2.25519e-05
2.04842e-06
-7.65893e-05
0.000155664
-0.000120114
0.000224588
-9.96775e-05
7.40267e-05
-7.06434e-05
-0.000118934
-5.95039e-05
-0.000175463
-4.70606e-05
-0.000139382
-3.54069e-05
-9.15826e-05
-2.26864e-05
-7.02312e-05
-3.36446e-06
-6.83614e-05
1.51755e-05
-4.96513e-05
2.78768e-05
-9.64087e-07
2.30897e-05
9.84908e-05
9.75853e-05
7.01808e-06
7.39402e-05
1.31074e-05
4.68787e-05
2.01532e-05
-5.50021e-06
2.03945e-05
-3.42746e-05
4.3499e-06
-2.32288e-05
-3.44842e-05
4.08825e-05
-9.15432e-05
0.000212723
-0.000121765
0.00025481
-9.57633e-05
4.80252e-05
-8.16107e-05
-0.000133086
-8.05555e-05
-0.000176518
-8.08262e-05
-0.000139111
-7.60549e-05
-9.63539e-05
-6.29585e-05
-8.33277e-05
-4.6551e-05
-8.47689e-05
-2.46571e-05
-7.15452e-05
1.43168e-06
-2.70529e-05
1.75216e-05
8.24009e-05
0.000115107
1.24224e-05
6.15178e-05
2.37614e-05
3.55397e-05
3.46187e-05
-1.63575e-05
2.71417e-05
-2.67976e-05
2.9022e-06
1.0107e-06
-4.72761e-05
9.10608e-05
-0.000102744
0.000268191
-0.000118542
0.000270608
-9.26772e-05
2.21601e-05
-9.29419e-05
-0.000132821
-0.000105556
-0.000163904
-0.000121568
-0.000123099
-0.000123026
-9.48958e-05
-0.000118282
-8.80714e-05
-0.000113385
-8.96664e-05
-9.34777e-05
-9.14524e-05
-5.05572e-05
-6.99734e-05
-9.33394e-07
3.27771e-05
0.000114173
1.57807e-05
4.57371e-05
3.40212e-05
1.72992e-05
4.23319e-05
-2.46682e-05
2.44036e-05
-8.86923e-06
-5.61282e-06
3.10271e-05
-6.07955e-05
0.000146243
-0.000109338
0.000316734
-0.000103452
0.000264721
-8.68551e-05
5.56339e-06
-0.000102074
-0.000117603
-0.000128835
-0.000137143
-0.000148706
-0.000103228
-0.000147152
-9.64498e-05
-0.000143123
-9.20996e-05
-0.000146796
-8.5994e-05
-0.000142654
-9.55945e-05
-0.000119662
-9.29655e-05
-6.73169e-05
-1.95675e-05
4.68566e-05
7.19698e-06
2.08777e-05
4.53848e-06
3.1932e-05
-2.9314e-06
3.51605e-05
-1.45115e-05
3.6057e-05
-2.70493e-05
3.02667e-05
-3.74721e-05
2.29783e-05
-4.33368e-05
1.84742e-05
-4.82319e-05
1.74855e-05
-5.5235e-05
1.84557e-05
-6.33878e-05
1.62627e-05
-6.75497e-05
6.08474e-06
-6.24275e-05
-1.26131e-05
-4.78414e-05
-3.29589e-05
-3.1155e-05
-4.1554e-05
-1.8737e-05
-3.66554e-05
-1.14129e-05
-2.73553e-05
-5.51041e-06
-2.2716e-05
8.67159e-07
-2.16065e-05
6.51811e-06
-2.05723e-05
9.8706e-06
-1.8807e-05
1.18063e-05
-1.55304e-05
1.22052e-05
-1.30589e-05
-8.35043e-06
1.7743e-05
-4.98357e-05
7.07134e-05
-6.72689e-05
4.93651e-05
-8.289e-05
5.07816e-05
-9.14505e-05
4.46176e-05
-9.2933e-05
3.17491e-05
-8.964e-05
1.96853e-05
-8.30912e-05
1.19254e-05
-7.55366e-05
9.93086e-06
-7.35781e-05
1.64972e-05
-7.98917e-05
2.25763e-05
-9.01104e-05
1.63034e-05
-9.95484e-05
-3.17505e-06
-9.25617e-05
-3.99456e-05
-7.19097e-05
-6.2206e-05
-5.05693e-05
-5.79958e-05
-3.70481e-05
-4.08765e-05
-2.79882e-05
-3.17759e-05
-1.63549e-05
-3.32399e-05
-4.16766e-06
-3.27595e-05
4.36494e-06
-2.73396e-05
9.30731e-06
-2.04728e-05
1.34993e-05
-1.72509e-05
-1.83324e-05
2.34813e-05
-0.000172899
0.000243612
-0.000255855
0.000132321
-0.000281742
7.6668e-05
-0.000283974
4.68497e-05
-0.000279129
2.69044e-05
-0.000271948
1.25038e-05
-0.000253022
-7.00043e-06
-0.00023714
-5.95113e-06
-0.000241201
2.05582e-05
-0.000266585
4.79599e-05
-0.000289167
3.88856e-05
-0.000274967
-1.73743e-05
-0.000234069
-8.08436e-05
-0.000175724
-0.000120552
-0.000119407
-0.000114312
-8.54549e-05
-7.4829e-05
-6.86599e-05
-4.85709e-05
-4.71966e-05
-5.47031e-05
-3.14534e-05
-4.85027e-05
-2.70825e-05
-3.17105e-05
-1.87029e-05
-2.88525e-05
8.74309e-06
-4.46968e-05
-6.03327e-05
5.07434e-05
-0.000140056
0.000383669
-0.000262843
0.000255108
-0.000356868
0.000170693
-0.000420198
0.000110179
-0.000454412
6.11181e-05
-0.00045413
1.22227e-05
-0.000443989
-1.71421e-05
-0.000440689
-9.25048e-06
-0.000443727
2.35958e-05
-0.000437872
4.21047e-05
-0.00040833
9.34407e-06
-0.000359301
-6.64037e-05
-0.00030032
-0.000139825
-0.000247183
-0.000173689
-0.00019722
-0.000164275
-0.000147046
-0.000125003
-0.000133194
-6.24233e-05
-0.000153452
-3.4445e-05
-0.00021907
1.71152e-05
-0.000282916
3.21356e-05
-0.000260809
-5.09592e-05
-0.00016766
-0.000137846
-0.000165521
-6.24711e-05
-9.57885e-05
0.000479457
-0.00019857
0.000357889
-0.000297316
0.000269439
-0.000386199
0.000199062
-0.000454229
0.000129148
-0.000499049
5.70424e-05
-0.000525191
8.9996e-06
-0.000521492
-1.29495e-05
-0.000483039
-1.48572e-05
-0.000433605
-7.32875e-06
-0.000392595
-3.16666e-05
-0.00036075
-9.82485e-05
-0.000335362
-0.000165212
-0.000313014
-0.000196037
-0.000293392
-0.000183896
-0.000280862
-0.000137533
-0.00027791
-6.53754e-05
-0.000324982
1.26268e-05
-0.000334979
2.71125e-05
-0.000294848
-7.99543e-06
-0.000244474
-0.000101333
-0.000205115
-0.000177205
-0.000180755
-0.000189881
-5.19115e-05
0.000531369
-0.000117363
0.000423341
-0.000177511
0.000329587
-0.000216288
0.000237839
-0.000243373
0.000156234
-0.000276635
9.0304e-05
-0.000319255
5.16196e-05
-0.000357796
2.55915e-05
-0.000369087
-3.5666e-06
-0.000358679
-1.7736e-05
-0.000348591
-4.17547e-05
-0.000344304
-0.000102536
-0.000342222
-0.000167294
-0.000336039
-0.000202221
-0.000320702
-0.000199233
-0.000296402
-0.000161833
-0.000254016
-0.000107761
-0.000194461
-4.6929e-05
-0.000158806
-8.54196e-06
-0.000138835
-2.79666e-05
-0.000163028
-7.71403e-05
-0.000177524
-0.000162709
-0.000170573
-0.000187707
-1.49392e-05
0.000546308
-4.75468e-05
0.000455948
-7.52559e-05
0.000357296
-8.63594e-05
0.000248942
-8.39887e-05
0.000153863
-9.4266e-05
0.000100581
-0.000125798
8.31512e-05
-0.00017667
7.64635e-05
-0.000234894
5.46579e-05
-0.000272946
2.03163e-05
-0.000290827
-2.3874e-05
-0.000309348
-8.4015e-05
-0.000327068
-0.000149574
-0.000336606
-0.000192683
-0.000328277
-0.000207561
-0.00030192
-0.00018819
-0.000259249
-0.000150433
-0.00019879
-0.000107388
-0.000129004
-7.83281e-05
-9.05075e-05
-6.64632e-05
-9.68585e-05
-7.07892e-05
-0.00013826
-0.000121307
-0.000146277
-0.000162556
1.41737e-05
0.000532134
8.14583e-07
0.000469307
-7.1502e-06
0.000365261
-6.70754e-06
0.0002485
-1.97099e-06
0.000149126
-9.88981e-07
9.95994e-05
-9.90206e-06
9.20643e-05
-3.56304e-05
0.000102192
-8.06325e-05
9.966e-05
-0.000131957
7.16408e-05
-0.000181307
2.54764e-05
-0.000234628
-3.06944e-05
-0.000287902
-9.63001e-05
-0.00032147
-0.000159114
-0.000334639
-0.000194393
-0.000320823
-0.000202005
-0.000282369
-0.000188887
-0.000233773
-0.000155983
-0.000181279
-0.000130822
-0.000137982
-0.00010976
-0.000105159
-0.000103613
-0.00011271
-0.000113756
-0.00012128
-0.000137706
3.87593e-05
0.000493375
3.09842e-05
0.000477083
3.35852e-05
0.00036266
3.73484e-05
0.000244737
3.89818e-05
0.000147493
4.03159e-05
9.82653e-05
4.20346e-05
9.03457e-05
3.97748e-05
0.000104452
2.26724e-05
0.000116762
-1.35077e-05
0.000107821
-6.47014e-05
7.66701e-05
-0.000130371
3.49753e-05
-0.000209175
-1.74957e-05
-0.000282946
-8.53432e-05
-0.000329236
-0.000148103
-0.000341677
-0.000189564
-0.000328217
-0.000202347
-0.000283468
-0.000200732
-0.000232445
-0.000181846
-0.000184512
-0.000157693
-0.000154183
-0.000133942
-0.000152586
-0.000115353
-0.000102011
-0.000171855
5.99883e-05
0.000433387
5.83911e-05
0.00047868
5.76741e-05
0.000363377
6.11421e-05
0.000241269
6.25177e-05
0.000146118
6.41191e-05
9.66639e-05
6.65991e-05
8.78656e-05
7.09352e-05
0.000100116
7.17226e-05
0.000115975
5.87163e-05
0.000120827
2.68691e-05
0.000108517
-2.22706e-05
8.41152e-05
-9.35098e-05
5.37434e-05
-0.000184683
5.83045e-06
-0.000271032
-6.17551e-05
-0.000333352
-0.000127243
-0.000360528
-0.000175171
-0.00035605
-0.000205209
-0.000327858
-0.000210037
-0.000284594
-0.000200958
-0.000278155
-0.000140381
-0.000342032
-5.14764e-05
-7.64946e-05
-0.000367548
7.70099e-05
0.000356377
9.20671e-05
0.000463623
8.75597e-05
0.000367885
8.48874e-05
0.000243941
8.34097e-05
0.000147595
8.24799e-05
9.75939e-05
8.16103e-05
8.87351e-05
8.27596e-05
9.89666e-05
8.70829e-05
0.000111652
8.75525e-05
0.000120358
7.52718e-05
0.000120798
4.76535e-05
0.000111733
4.78182e-06
9.66151e-05
-6.26968e-05
7.33092e-05
-0.00015239
2.7938e-05
-0.00024001
-3.96237e-05
-0.000313472
-0.000101708
-0.000379719
-0.000138962
-0.000434202
-0.000155555
-0.00049254
-0.000142619
-0.000530985
-0.000101936
-0.000496458
-8.60043e-05
-0.00015275
-0.000420202
8.01487e-05
0.000276228
0.000118762
0.00042501
0.00012335
0.000363297
0.000118132
0.000249159
0.000110569
0.000155159
0.000102029
0.000106133
9.41311e-05
9.66334e-05
8.88868e-05
0.000104211
8.88195e-05
0.000111719
9.20274e-05
0.00011715
9.12637e-05
0.000121562
8.08001e-05
0.000122197
5.95597e-05
0.000117855
2.36438e-05
0.000109225
-3.6107e-05
8.7689e-05
-0.000114132
3.84013e-05
-0.000195232
-2.06082e-05
-0.000278166
-5.60287e-05
-0.000365325
-6.83956e-05
-0.000436754
-7.11889e-05
-0.000465721
-7.29695e-05
-0.000457337
-9.43886e-05
-0.000159806
-0.000450281
6.22825e-05
0.000213946
0.000118784
0.000368508
0.000142735
0.000339347
0.000144352
0.000247542
0.000133646
0.000165864
0.000117806
0.000121974
0.00010338
0.000111059
9.3341e-05
0.00011425
8.8319e-05
0.000116741
8.8353e-05
0.000117116
9.03571e-05
0.000119558
8.92573e-05
0.000123297
8.22704e-05
0.000124842
6.70257e-05
0.00012447
3.41013e-05
0.000120613
-2.51707e-05
9.76733e-05
-9.46532e-05
4.88743e-05
-0.000161723
1.10409e-05
-0.000231221
1.10273e-06
-0.000297129
-5.28067e-06
-0.000335682
-3.44167e-05
-0.000351444
-7.86266e-05
-0.00014522
-0.000366031
3.13935e-05
0.000182553
9.24646e-05
0.000307437
0.000133102
0.00029871
0.000145909
0.000234734
0.000138121
0.000173653
0.000121358
0.000138737
0.000105818
0.000126599
9.52344e-05
0.000124834
8.86391e-05
0.000123336
8.55716e-05
0.000120183
8.59717e-05
0.000119158
8.77377e-05
0.000121531
8.80091e-05
0.000124571
8.46408e-05
0.000127838
7.20597e-05
0.000133195
3.78996e-05
0.000131833
-2.02441e-05
0.000107018
-6.99826e-05
6.07795e-05
-0.000101658
3.27779e-05
-0.000141957
3.5019e-05
-0.000190844
1.44698e-05
-0.000214881
-5.45891e-05
-0.000132764
-0.000227336
7.01148e-06
0.000175541
5.95329e-05
0.000254916
0.000104925
0.000253319
0.000125155
0.000214504
0.00012361
0.000175198
0.000112347
0.00015
0.000101319
0.000137627
9.39403e-05
0.000132212
8.90619e-05
0.000128215
8.56687e-05
0.000123577
8.46191e-05
0.000120207
8.62579e-05
0.000119892
8.90833e-05
0.000121745
9.15805e-05
0.000125341
9.17274e-05
0.000133048
8.13483e-05
0.000142212
4.86642e-05
0.000139702
1.84545e-06
0.000107598
-2.13668e-05
5.59901e-05
-1.41487e-05
2.78009e-05
-2.45134e-05
2.48344e-05
-5.40682e-05
-2.50345e-05
-9.68756e-05
-8.99573e-05
-9.46256e-07
0.000176488
3.65899e-05
0.000217381
7.56298e-05
0.000214279
9.67985e-05
0.000193335
0.000101145
0.000170852
9.7619e-05
0.000153526
9.3175e-05
0.000142071
9.03543e-05
0.000135033
8.86402e-05
0.000129929
8.71589e-05
0.000125058
8.65521e-05
0.000120814
8.79874e-05
0.000118456
9.13792e-05
0.000118354
9.61743e-05
0.000120546
0.000102619
0.000126602
0.000108211
0.000136621
0.00010318
0.000144733
7.4573e-05
0.000136205
3.56085e-05
9.49546e-05
2.39651e-05
3.94444e-05
4.09817e-05
7.81782e-06
4.2758e-05
-2.68109e-05
-7.18187e-05
1.77012e-05
1.83812e-06
0.00017465
2.62078e-05
0.000193011
5.46813e-05
0.000185806
7.29928e-05
0.000175024
8.10312e-05
0.000162814
8.36332e-05
0.000150925
8.45937e-05
0.000141111
8.56604e-05
0.000133967
8.6961e-05
0.000128628
8.80726e-05
0.000123946
8.92497e-05
0.000119637
9.14288e-05
0.000116277
9.52215e-05
0.000114561
0.000100878
0.000114889
0.000109502
0.000117979
0.000121936
0.000124186
0.000134923
0.000131745
0.000136558
0.000134571
0.000114628
0.000116884
7.9953e-05
7.41196e-05
6.54216e-05
2.23491e-05
6.3442e-05
-2.48314e-05
-7.0312e-05
6.19352e-05
6.89346e-06
0.000167757
2.31613e-05
0.000176743
4.26958e-05
0.000166271
5.74869e-05
0.000160233
6.68888e-05
0.000153412
7.27909e-05
0.000145023
7.69502e-05
0.000136952
8.05367e-05
0.00013038
8.39954e-05
0.000125169
8.72761e-05
0.000120665
9.04343e-05
0.000116479
9.39531e-05
0.000112758
9.85098e-05
0.000110004
0.000104754
0.000108645
0.00011384
0.000108892
0.000127427
0.0001106
0.000146372
0.0001128
0.000167022
0.000113921
0.000176964
0.000106941
0.000170305
8.07791e-05
0.000156697
3.59564e-05
0.000142137
-1.02713e-05
-6.37478e-05
0.000135573
9.10697e-06
0.00015865
2.20266e-05
0.000163824
3.62225e-05
0.000152075
4.82643e-05
0.000148191
5.75818e-05
0.000144094
6.46895e-05
0.000137915
7.03405e-05
0.000131301
7.52897e-05
0.000125431
8.00179e-05
0.000120441
8.46696e-05
0.000116014
8.92782e-05
0.00011187
9.40497e-05
0.000107987
9.94782e-05
0.000104575
0.000106253
0.00010187
0.00011531
9.98355e-05
0.000127888
9.80215e-05
0.000145376
9.53118e-05
0.000168571
9.07259e-05
0.000193006
8.25065e-05
0.000210059
6.37264e-05
0.00021418
3.18346e-05
0.000212194
-8.28554e-06
-5.5535e-05
0.000203982
9.17171e-06
0.000149478
2.06137e-05
0.000152382
3.20681e-05
0.000140621
4.22901e-05
0.00013797
5.10127e-05
0.000135372
5.8322e-05
0.000130605
6.45405e-05
0.000125082
7.01307e-05
0.000119841
7.54827e-05
0.000115089
8.08032e-05
0.000110693
8.61747e-05
0.000106499
9.17196e-05
0.000102442
9.7754e-05
9.85408e-05
0.000104809
9.48156e-05
0.000113538
9.11059e-05
0.00012462
8.6939e-05
0.000138613
8.13189e-05
0.000156266
7.3073e-05
0.000177263
6.15098e-05
0.000196639
4.43496e-05
0.000208974
1.95001e-05
0.000212784
-1.2096e-05
-4.77689e-05
0.000205018
8.51973e-06
0.000140958
1.88695e-05
0.000142032
2.87726e-05
0.000130718
3.77873e-05
0.000128955
4.58735e-05
0.000127285
5.30272e-05
0.000123452
5.93871e-05
0.000118722
6.52232e-05
0.000114004
7.0813e-05
0.000109499
7.63554e-05
0.000105151
8.19746e-05
0.000100879
8.77935e-05
9.66226e-05
9.40195e-05
9.23146e-05
0.000100985
8.78498e-05
0.000109077
8.3014e-05
0.000118605
7.74107e-05
0.000129565
7.03585e-05
0.000141721
6.09175e-05
0.00015486
4.83708e-05
0.000167088
3.21211e-05
0.000175179
1.14099e-05
0.000176319
-1.32361e-05
-3.87289e-05
0.000167279
7.83133e-06
0.000133127
1.71704e-05
0.000132693
2.59655e-05
0.000121923
3.4089e-05
0.000120831
4.16005e-05
0.000119774
4.84769e-05
0.000116575
5.47712e-05
0.000112428
6.06356e-05
0.00010814
6.62541e-05
0.00010388
7.17892e-05
9.96156e-05
7.73726e-05
9.52957e-05
8.31288e-05
9.08662e-05
8.9203e-05
8.62403e-05
9.57756e-05
8.12771e-05
0.000103027
7.57625e-05
0.000111054
6.93835e-05
0.000119703
6.17098e-05
0.000128446
5.21736e-05
0.0001366
4.02176e-05
0.000143149
2.55717e-05
0.000146364
8.19504e-06
0.000144336
-1.12079e-05
-3.06384e-05
0.000136245
7.21822e-06
0.000125909
1.56595e-05
0.000124252
2.35587e-05
0.000114024
3.09549e-05
0.000113435
3.79398e-05
0.000112789
4.44814e-05
0.000110034
5.05893e-05
0.00010632
5.63475e-05
0.000102382
6.18737e-05
9.83542e-05
6.72876e-05
9.42017e-05
7.27007e-05
8.98826e-05
7.8218e-05
8.53488e-05
8.39384e-05
8.05199e-05
8.9948e-05
7.52674e-05
9.63001e-05
6.94103e-05
0.00010297
6.27132e-05
0.000109783
5.48971e-05
0.000116304
4.56527e-05
0.00012184
3.46813e-05
0.00012554
2.18721e-05
0.000126365
7.37011e-06
0.000123409
-8.25229e-06
-2.36771e-05
0.000116448
6.64991e-06
0.000119259
1.43184e-05
0.000116583
2.14683e-05
0.000106874
2.8238e-05
0.000106666
3.47293e-05
0.000106297
4.09032e-05
0.00010386
4.67466e-05
0.000100477
5.23047e-05
9.68237e-05
5.76518e-05
9.30071e-05
6.28697e-05
8.89838e-05
6.80383e-05
8.47139e-05
7.32309e-05
8.01562e-05
7.8506e-05
7.52448e-05
8.38948e-05
6.98785e-05
8.93846e-05
6.39204e-05
9.48934e-05
5.72042e-05
0.00010024
4.95501e-05
0.0001051
4.07932e-05
0.000108969
3.08121e-05
0.00011122
1.96212e-05
0.00011121
7.37975e-06
0.000108576
-5.61817e-06
-1.81973e-05
0.000103096
6.11777e-06
0.000113141
1.31093e-05
0.000109592
1.96133e-05
0.00010037
2.58267e-05
0.000100452
3.18519e-05
0.000100272
3.76428e-05
9.8069e-05
4.31726e-05
9.49468e-05
4.84641e-05
9.15323e-05
5.35638e-05
8.79074e-05
5.85238e-05
8.40238e-05
6.33942e-05
7.98435e-05
6.82171e-05
7.53334e-05
7.30185e-05
7.04434e-05
7.77972e-05
6.50998e-05
8.25108e-05
5.92067e-05
8.70607e-05
5.26542e-05
9.12773e-05
4.53335e-05
9.49085e-05
3.7162e-05
9.76136e-05
2.8107e-05
9.89982e-05
1.82365e-05
9.86766e-05
7.70133e-06
9.63331e-05
-3.27472e-06
-1.38252e-05
9.19609e-05
5.62849e-06
0.000107513
1.20101e-05
0.00010321
1.79382e-05
9.44418e-05
2.36461e-05
9.47442e-05
2.92295e-05
9.46889e-05
3.46338e-05
9.26646e-05
3.98228e-05
8.97579e-05
4.48052e-05
8.655e-05
4.96091e-05
8.31036e-05
5.42652e-05
7.93678e-05
5.88003e-05
7.53084e-05
6.32329e-05
7.09008e-05
6.75664e-05
6.61099e-05
7.17809e-05
6.08853e-05
7.58236e-05
5.5164e-05
7.95993e-05
4.88785e-05
8.29634e-05
4.19694e-05
8.57211e-05
3.44042e-05
8.76341e-05
2.6194e-05
8.8445e-05
1.74256e-05
8.78977e-05
8.24852e-06
8.58463e-05
-1.22342e-06
-1.02499e-05
8.22709e-05
5.18464e-06
0.000102328
1.10076e-05
9.73873e-05
1.64107e-05
8.90386e-05
2.16508e-05
8.95039e-05
2.68133e-05
8.95264e-05
3.18344e-05
8.76436e-05
3.66706e-05
8.49217e-05
4.13213e-05
8.18993e-05
4.58021e-05
7.86229e-05
5.01286e-05
7.50413e-05
5.43116e-05
7.11255e-05
5.83536e-05
6.68589e-05
6.22442e-05
6.22193e-05
6.59543e-05
5.71751e-05
6.94297e-05
5.16885e-05
7.25861e-05
4.5722e-05
7.53062e-05
3.92493e-05
7.74422e-05
3.22681e-05
7.88244e-05
2.48116e-05
7.9283e-05
1.69668e-05
7.86735e-05
8.8579e-06
7.67964e-05
6.53516e-07
-7.30735e-06
7.38537e-05
4.78431e-06
9.75437e-05
1.00916e-05
9.20799e-05
1.50116e-05
8.41186e-05
1.9814e-05
8.47013e-05
2.45734e-05
8.4767e-05
2.92182e-05
8.29988e-05
3.36996e-05
8.04404e-05
3.80105e-05
7.75884e-05
4.2158e-05
7.44755e-05
4.61473e-05
7.1052e-05
4.99784e-05
6.72944e-05
5.3644e-05
6.31933e-05
5.7126e-05
5.87373e-05
6.03918e-05
5.39092e-05
6.33907e-05
4.86896e-05
6.60506e-05
4.30621e-05
6.82784e-05
3.70215e-05
6.99631e-05
3.05833e-05
7.09836e-05
2.37909e-05
7.12238e-05
1.67265e-05
7.05857e-05
9.4958e-06
6.89851e-05
2.254e-06
-4.83691e-06
6.65146e-05
4.42534e-06
9.31184e-05
9.25325e-06
8.72519e-05
1.37276e-05
7.96443e-05
1.81183e-05
8.03106e-05
2.24912e-05
8.03942e-05
2.67695e-05
7.87206e-05
3.09003e-05
7.63096e-05
3.48727e-05
7.36161e-05
3.86878e-05
7.06605e-05
4.23437e-05
6.73961e-05
4.58336e-05
6.38045e-05
4.91442e-05
5.98828e-05
5.22538e-05
5.56277e-05
5.513e-05
5.1033e-05
5.77272e-05
4.60924e-05
5.99856e-05
4.08036e-05
6.18321e-05
3.5175e-05
6.31839e-05
2.92314e-05
6.39549e-05
2.30198e-05
6.40663e-05
1.66149e-05
6.34555e-05
1.01066e-05
6.2084e-05
3.62547e-06
-2.75792e-06
6.0005e-05
4.10766e-06
8.90107e-05
8.48406e-06
8.28755e-05
1.25468e-05
7.55817e-05
1.65502e-05
7.63072e-05
2.0554e-05
7.63905e-05
2.44782e-05
7.47965e-05
2.82675e-05
7.25203e-05
3.19086e-05
6.9975e-05
3.53987e-05
6.71704e-05
3.87316e-05
6.40632e-05
4.18958e-05
6.06401e-05
4.48752e-05
5.69033e-05
4.76471e-05
5.28558e-05
5.0181e-05
4.84991e-05
5.24375e-05
4.38358e-05
5.43679e-05
3.88732e-05
5.59152e-05
3.36276e-05
5.7018e-05
2.81285e-05
5.76155e-05
2.24223e-05
5.76547e-05
1.65757e-05
5.70962e-05
1.0665e-05
5.59219e-05
4.79979e-06
-1.00427e-06
5.41683e-05
3.83368e-06
8.51769e-05
7.77683e-06
7.89325e-05
1.14561e-05
7.19026e-05
1.50966e-05
7.26668e-05
1.87513e-05
7.27358e-05
2.23367e-05
7.12112e-05
2.57971e-05
6.906e-05
2.91184e-05
6.66537e-05
3.22956e-05
6.39932e-05
3.53195e-05
6.10392e-05
3.81766e-05
5.77829e-05
4.08495e-05
5.42304e-05
4.33161e-05
5.03892e-05
4.55492e-05
4.6266e-05
4.75154e-05
4.18696e-05
4.91756e-05
3.72131e-05
5.0486e-05
3.23172e-05
5.14015e-05
2.7213e-05
5.18798e-05
2.1944e-05
5.18868e-05
1.65688e-05
5.14003e-05
1.11515e-05
5.04193e-05
5.78086e-06
4.76587e-07
4.89385e-05
3.60599e-06
8.15709e-05
7.12831e-06
7.54104e-05
1.04429e-05
6.85882e-05
1.37448e-05
6.9365e-05
1.70724e-05
6.94081e-05
2.03364e-05
6.79473e-05
2.34833e-05
6.59131e-05
2.64997e-05
6.36373e-05
2.93792e-05
6.11136e-05
3.21115e-05
5.83068e-05
3.46823e-05
5.5212e-05
3.70743e-05
5.18385e-05
3.92671e-05
4.81964e-05
4.12368e-05
4.42963e-05
4.29561e-05
4.01504e-05
4.43938e-05
3.57753e-05
4.5517e-05
3.11939e-05
4.62934e-05
2.64366e-05
4.66946e-05
2.1543e-05
4.66999e-05
1.65635e-05
4.6299e-05
1.15525e-05
4.54971e-05
6.5828e-06
1.66744e-06
4.43063e-05
3.42269e-06
7.81484e-05
6.54021e-06
7.2293e-05
9.49981e-06
6.56286e-05
1.24836e-05
6.63813e-05
1.55049e-05
6.63868e-05
1.84653e-05
6.49869e-05
2.13152e-05
6.30632e-05
2.4043e-05
6.09094e-05
2.66422e-05
5.85144e-05
2.91023e-05
5.58467e-05
3.14091e-05
5.29052e-05
3.35461e-05
4.97015e-05
3.5495e-05
4.62476e-05
3.72355e-05
4.25558e-05
3.87451e-05
3.86408e-05
3.99997e-05
3.45207e-05
4.09749e-05
3.02187e-05
4.16484e-05
2.57633e-05
4.20019e-05
2.11895e-05
4.20249e-05
1.65407e-05
4.17155e-05
1.1862e-05
4.10846e-05
7.21369e-06
2.60028e-06
4.01517e-05
3.2746e-06
7.48739e-05
6.01411e-06
6.95536e-05
8.6235e-06
6.30193e-05
1.13025e-05
6.37023e-05
1.4033e-05
6.36563e-05
1.67051e-05
6.23148e-05
1.92731e-05
6.04952e-05
2.17277e-05
5.84547e-05
2.40631e-05
5.6179e-05
2.62694e-05
5.36404e-05
2.83327e-05
5.08419e-05
3.02376e-05
4.77966e-05
3.19678e-05
4.45174e-05
3.35057e-05
4.10178e-05
3.4833e-05
3.73135e-05
3.59309e-05
3.34228e-05
3.67816e-05
2.93681e-05
3.73695e-05
2.51755e-05
3.76832e-05
2.08759e-05
3.77182e-05
1.65058e-05
3.74775e-05
1.21028e-05
3.69748e-05
7.71639e-06
3.34248e-06
3.62325e-05
3.14723e-06
7.17267e-05
5.54488e-06
6.71559e-05
7.8079e-06
6.07562e-05
1.01874e-05
6.13228e-05
1.26359e-05
6.12078e-05
1.50299e-05
5.99208e-05
1.73264e-05
5.81986e-05
1.95185e-05
5.62626e-05
2.16021e-05
5.40954e-05
2.35674e-05
5.1675e-05
2.54007e-05
4.90086e-05
2.70877e-05
4.61097e-05
2.86132e-05
4.29919e-05
2.99617e-05
3.96693e-05
3.11176e-05
3.61575e-05
3.20658e-05
3.24746e-05
3.27924e-05
2.86415e-05
3.32858e-05
2.46821e-05
3.35382e-05
2.06236e-05
3.35472e-05
1.64968e-05
3.33168e-05
1.23332e-05
3.28599e-05
8.17325e-06
4.00771e-06
3.21946e-05
3.0246e-06
6.87021e-05
5.12071e-06
6.50598e-05
7.04068e-06
5.88363e-05
9.12033e-06
5.92432e-05
1.12886e-05
5.90396e-05
1.34073e-05
5.78021e-05
1.54358e-05
5.61702e-05
1.73693e-05
5.43291e-05
1.92052e-05
5.22595e-05
2.09332e-05
4.9947e-05
2.25395e-05
4.74023e-05
2.40101e-05
4.46391e-05
2.53305e-05
4.16714e-05
2.64865e-05
3.85134e-05
2.74639e-05
3.518e-05
2.82497e-05
3.16888e-05
2.88321e-05
2.80591e-05
2.92013e-05
2.4313e-05
2.93508e-05
2.04743e-05
2.92789e-05
1.65687e-05
2.89896e-05
1.26225e-05
2.8495e-05
8.66773e-06
4.69121e-06
2.78114e-05
2.89164e-06
6.58105e-05
4.72727e-06
6.32243e-05
6.30717e-06
5.72565e-05
8.08334e-06
5.74671e-05
9.96658e-06
5.71564e-05
1.18058e-05
5.5963e-05
1.35633e-05
5.44128e-05
1.52357e-05
5.26567e-05
1.68208e-05
5.06745e-05
1.83071e-05
4.84606e-05
1.96803e-05
4.6029e-05
2.09266e-05
4.33928e-05
2.2032e-05
4.05661e-05
2.29828e-05
3.75626e-05
2.3766e-05
3.43968e-05
2.437e-05
3.10848e-05
2.47845e-05
2.76447e-05
2.50009e-05
2.40965e-05
2.50144e-05
2.04608e-05
2.48248e-05
1.67584e-05
2.44377e-05
1.30095e-05
2.38683e-05
9.23709e-06
5.425e-06
2.31344e-05
2.7342e-06
6.30763e-05
4.34378e-06
6.16148e-05
5.59296e-06
5.60075e-05
7.06374e-06
5.59964e-05
8.6534e-06
5.55669e-05
1.02059e-05
5.44105e-05
1.16874e-05
5.29313e-05
1.30944e-05
5.12496e-05
1.44236e-05
4.93452e-05
1.56619e-05
4.72223e-05
1.6795e-05
4.48958e-05
1.78095e-05
4.23784e-05
1.8692e-05
3.96837e-05
1.94298e-05
3.68249e-05
2.00116e-05
3.38151e-05
2.04276e-05
3.06689e-05
2.06693e-05
2.7403e-05
2.07308e-05
2.40351e-05
2.06099e-05
2.05817e-05