/*--------------------------------*- C++ -*----------------------------------*\
  =========                 |
  \\      /  F ield         | OpenFOAM: The Open Source CFD Toolbox
   \\    /   O peration     | Website:  https://openfoam.org
    \\  /    A nd           | Version:  13
     \\/     M anipulation  |
\*---------------------------------------------------------------------------*/
FoamFile
{
    format      ascii;
    class       volScalarField;
    location    "0.8";
    object      rho;
}
// * * * * * * * * * * * * * * * * * * * * * * * * * * * * * * * * * * * * * //

dimensions      [1 -3 0 0 0 0 0];

internalField   nonuniform List<scalar> 
2268
(
1000
1000
1000
1000
1000
1000
1000
1000
1000
1000
1000
1000
1000
1000
999.994
994.099
962.05
957.782
997.002
997.014
995.952
995.05
998.08
1000
1000
1000
1000
1000
1000
1000
1000
1000
1000
1000
1000
1000
1000
999.996
995.067
958.368
952.136
956.794
966.796
959.635
975.74
999.948
1000
1000
1000
1000
1000
1000
1000
1000
1000
1000
1000
1000
1000
1000
1000
999.981
991.605
956.304
947.975
947.967
948.21
983.257
999.948
1000
1000
1000
1000
1000
1000
1000
1000
1000
1000
1000
1000
1000
1000
1000
1000
999.981
998.128
990.845
988.747
986.952
1000
999.948
1000
1000
1000
1000
1000
1000
999.999
1000
1000
1000
1000
1000
1000
1000
1000
1000
1000
999.999
1000
1000
1000
1000
1000
1000
1000
1000
1000
1000
1000
999.991
999.958
999.964
1000
1000
1000
1000
1000
1000
1000
1000
1000
1000
1000
1000
1000
999.99
1000
1000
1000
1000
1000
1000
1000
999.451
999.93
1000
1000
1000
1000
1000
1000
1000
1000
1000
1000
1000
1000
1000
999.958
1000
1000
1000
1000
1000
996.38
982.257
999.612
999.999
999.999
999.999
999.996
999.993
999.998
999.998
999.998
999.999
999.999
999.999
999.998
999.998
999.998
999.949
986.22
999.455
994.776
970.717
968.79
970.947
954.249
768.005
777.942
854.111
824.931
685.728
685.728
742.692
775.527
772.838
821.456
858.789
856.061
993.248
999.538
999.528
999.468
999.246
999.393
980.695
770.009
797.418
798.888
621.188
701.108
706.599
779.086
779.228
546.723
539.311
557.264
842.983
996.841
999.538
981.577
943.643
988.869
999.397
983.548
835.126
737.617
545.203
546.573
778.52
779.086
779.229
779.244
779.229
644.73
558.216
783.428
966.161
957.689
736.417
734.845
940.027
999.355
971.972
911.499
599.196
542.175
693.501
777.691
778.521
779.086
779.229
779.244
779.168
563.264
717.44
986.818
979.936
732.955
732.924
930.814
997.483
974.869
875.994
504.058
527.088
757.135
773.394
700.545
751.141
778.794
779.168
778.789
776.553
774.231
986.898
986.821
734.01
820.85
988.104
996.442
992.641
826.923
457.292
633.828
745.431
506.586
174.56
280.668
657.285
754.603
725.345
774.228
773.432
986.879
836.384
736.159
774.95
920.899
995.679
994.379
785.043
428.693
681.936
690.936
155.196
154.627
154.557
162.171
263.452
241.948
542.88
726.788
957.35
838.68
871.348
614.142
816.494
994.379
992.408
676.879
230.991
598.489
473.669
154.747
154.556
154.557
154.558
155.353
159.644
200.05
266.745
728.169
784.12
777.279
777.242
787.404
868.231
965.842
999.999
999.999
999.999
999.999
999.923
999.891
999.134
999.922
999.934
999.945
999.941
999.933
999.926
999.93
999.916
999.931
201.523
129.127
160.276
224.858
337.785
458.041
544.716
634.901
781.115
899.915
937.491
918.601
895.235
918.984
919.763
900.866
883.467
851.518
816.843
791.874
777.044
784.284
836.548
12.2475
10.1405
13.4502
17.8917
27.7494
50.8672
110.571
254.209
414.94
500.464
493.657
506.134
774.142
893.79
515.883
229.734
146.3
99.0715
62.2249
45.7248
41.3096
49.2303
74.2845
2.08859
1.62513
1.71618
1.8989
2.37312
6.84495
90.9895
174.327
151.846
121.493
358.861
644.311
735.772
747.029
303.661
3.59883
2.10938
2.10938
2.10519
2.11263
2.21271
2.85122
3.80285
1.27483
1.0735
1.04819
1.07554
1.84595
7.7394
10.2538
10.6987
10.72
7.84241
11.8401
31.7447
149.899
314.811
363.182
188.053
2.17665
2.10521
2.11262
2.21222
21.3855
64.1104
71.4575
1.07715
1.0215
1.01021
1.01442
1.14744
1.51889
1.57825
1.564
1.18116
1.04337
1.04901
1.29465
2.43496
32.0133
268.988
264.975
166.033
2.17594
2.52701
2.55825
4.47532
176.276
374.95
1.02226
1.00698
1.00255
1.00208
1.0024
1.00322
1.01404
1.04057
1.05686
1.02577
1.00481
1.02706
1.18352
2.03059
63.2687
251.705
246.283
174.7
18.3693
11.8522
17.8049
167.567
374.941
1.00765
1.0028
1.00071
1.00037
1.00025
1.00021
1.00023
1.0007
1.00232
1.00341
1.00153
1.00182
1.01404
1.0918
1.62194
30.8365
242.474
280.928
293.226
203.115
122.517
280.019
374.933
1.00257
1.00378
1.00037
1.0001
1.00004
1.00002
1.00001
1.00002
1.00032
1.00057
1.00062
1.00034
1.0012
1.01773
1.02506
1.11725
1.41484
131.346
302.676
314.91
315.646
316.684
317.926
1.00063
1.00226
1.0006
1.00004
1.00002
1
1
1
1.00015
1.00024
1.0001
1.00008
1.00108
1.00035
1.00181
1.00229
1.04436
1.02395
1.01492
116.556
158.606
51.7237
1.04718
1.00013
1.00019
1.00076
1.00023
1
1
1
1
1.00015
1.00015
1.00002
1.00002
1.00036
1.00025
1.00006
1.00013
1.00025
1.00078
1.00195
1.00362
1.00628
1.01147
1.02193
1.00002
1.00004
1.00047
1.00038
1.00005
1
1
1
1.00008
1.00005
1
1.00001
1.00013
1.00008
1.00002
1.00249
1.00826
1.00875
1.01048
1.01765
1.02937
1.02643
1.03931
1
1.00001
1.00004
1.00011
1.00006
1.00001
1
1
1
1
1
1.00008
1.00007
1.00001
1.00001
1.0003
1.07385
1.23876
1.05545
1.01842
1.14924
1.38385
1.30094
1
1
1
1
1.00001
1
1
1
1
1
1
1.00014
1.00015
1.00004
1
1
1.01646
1.37037
1.5989
1.02645
1.03564
1.63227
2.08757
1
1
1
1
1
1
1
1
1
1
1
1.00015
1.00015
1.00006
1
1
1.00001
1.16685
1.85191
1.73148
1.03357
1.03401
1.40135
1
1
1
1
1
1
1
1
1
1
1
1.00008
1.00012
1.00004
1
1
1
1.00007
1.48523
2.08407
1.80131
1.18125
1.35232
1
1
1
1
1
1
1
1
1
1
1
1
1.00001
1.00001
1
1
1
1.00004
1.00052
1.7507
2.26182
2.26455
2.2648
1
1
1
1
1
1
1
1
1
1
1
1
1
1
1
1
1
1
1.00005
1.03099
1.09239
1.36175
2.14929
1
1
1
1
1
1
1
1
1
1
1
1
1
1
1
1
1
1
1.00002
1.0001
1.00005
1.02025
1
1
1
1
1
1
1
1
1
1
1
1
1
1
1
1
1
1
1
1
1
1.00001
1
1
1
1
1
1
1
1
1
1
1
1
1
1
1
1
1
1
1
1
1
1
1
1
1
1
1
1
1
1
1
1
1
1
1
1
1
1
1
1
1
1
1
1
1
1
1
1
1
1
1
1
1
1
1
1
1
1
1
1
1
1
1
1
1
1
1
1
1
1
1
1
1
1
1
1
1
1
1
1
1
1
1
1
1
1
1
1
1
1
1
1
1
1
1
1
1
1
1
1
1
1
1
1
1
1
1
1
1
1
1
1
1
1
1
1
1
1
1
1
1
1
1
1
1
1
1
1
1
1
1
1
1
1
1
1
1
1
1
1
1
1
1
1
1
1
1
1
1
1
1
1
1
1
1
1
1
1
1
1
1
1
1
1
1
1
1
1
1
1
1
1
1
1
1
1
1
1
1
1
1
1
1
1
1
1
1
1
1
1
1
1
1
1
1
1
1
1
1
1
1
1
1
1
1
1
1
1
1
1
1
1
1
1
1
1
1
1
1
1
1
1
1
1
1
1
1
1
1
1
1
1
1
1
1
1
1
1
1
1
1
1
1
1
1
1
1
1
1
1
1
1
1
1
1
1
1
1
1
1
1
1
1
1
1
1
1
1
1
1
1
1
1
1
1
1
1
1
1
1
1
1
1
1
1
1
1
1
1
1
1
1
1
1
1
1
1
1
1
1
1
1
1
1
1
1
1
1
1
1
1
1
1
1
1
1
1
1
1
1
1
1
1
1
1
1
1
1
1
1
1
1
1
1
1
1
1
1
1
1
1
1
1
1
1
1
1
1
1
1
1
1
1
1
1
1
1
1
1
1
1
1
1
1
1
1
1
1
1
1
1
1
1
1
1
1
1
1
1
1
1
1
1
1
1
1
1
1
1
1
1
1
1
1
1
1
1
1
1
1
1
1
1
1
1
1
1
1
1
1
1
1
1
1
1
1
1
1
1
1
1
1
1
1
1
1
1
1
1
1
1
1
1
1
1
1
1
1
1
1
1
1
1
1
1
1
1
1
1
1
1
1
1
1
1
1
1
1
1
1
1
1
1
1
1
1
1
1
1
1
1
1
1
1
1
1
1
1
1
1
1
1
1
1
1
1
1
1
1
1
1
1
1
1
1
1
1
1
1
1
1
1
1
1
1
1
1
1
998.927
997.992
996.914
995.846
833.406
818.647
771.534
704.269
71.5492
63.9565
46.5571
43.4817
3.46919
3.46962
3.46774
3.6832
3.83808
3.46899
3.56593
3.66454
141.605
24.884
6.05605
4.13946
374.941
371.392
174.174
36.5281
372.997
368.722
365.261
361.447
260.904
282.861
352.195
347.41
1.13038
1.28205
26.6033
175.46
1.04836
1.07742
1.1108
1.1303
1.0569
1.07211
1.07873
1.05335
1.12796
1.07753
1.05451
1.03575
2.17985
1.60388
1.48464
1.26355
2.25694
2.26111
2.25694
2.23722
1.55319
2.26245
2.26212
2.25299
2.26479
2.26479
2.25734
1.77117
2.25037
2.06829
1.35052
1
1
1
1
1
1
1
1
1
1
1
1
1
1
1
1
1
1
1
1
1
1
1
1
1
1
1
1
1
1
1
1
1
1
1
1
1
1
1
1
1
1
1
1
1
1
1
1
1
1
1
1
1
1
1
1
1
1
1
1
1
1
1
1
1
1
1
1
1
1
1
1
1
1
1
1
1
1
1
1
1
1
1
1
1
1
1
1
1
1
1
1
1
1
1
1
1
953.72
950.661
876.376
515.573
848.142
992.538
906.486
159.975
12.4873
176.399
261.57
155.079
154.743
154.557
155.161
160.066
378.272
355.873
316.128
793.991
497.939
116.1
151.036
851.611
985.827
712.607
3.66864
2.70034
3.87892
48.0352
267.395
332.066
192.719
158.298
189.295
507.725
735.649
794.636
147.891
383.517
625.885
626.14
780.941
907.548
390.976
2.20821
2.13299
2.52152
24.0648
234.422
343.135
379.249
390.312
450.192
653.729
832.17
881.406
6.02946
103.592
572.172
874.262
879.312
770.072
101.185
1.99855
2.03384
2.30272
2.6045
1.81151
77.5616
268.496
414.142
462.488
474.902
756.755
881.666
4.02914
4.37257
116.904
805.431
879.838
799.952
65.6105
1.9647
1.99106
2.10256
2.82851
1.30355
1.20899
1.18589
1.16679
1.26781
2.13796
185.991
880.932
4.18692
3.83937
25.3689
608.31
879.838
816.693
89.5882
1.95667
1.95227
2.11981
14.3576
18.3441
1.18589
1.16679
1.14566
1.0924
1.22258
25.3558
704.867
15.7875
3.67089
5.356
419.133
879.838
795.186
123.756
1.95227
1.93242
1.91087
4.27201
21.3222
7.51201
1.22966
1.12377
1.04626
1.04129
10.2523
52.6981
176.639
3.69272
3.69272
148.105
713.623
791.399
112.192
1.93327
1.91087
1.90515
1.90594
14.2913
17.4944
8.41302
1.18546
1.03951
1.02603
1.04043
1.16121
335.748
142.476
5.09366
11.1187
158.126
569.4
21.5025
2.15694
1.93085
1.90893
1.90515
1.90893
16.9473
12.7433
2.15981
1.02546
1.0166
1.5853
1.52416
243.775
241.167
196.407
96.1875
98.7991
203.335
275.815
37.5297
2.16082
1.94901
1.90893
1.92602
8.62385
14.9247
3.53381
1.01588
1.01338
2.14738
12.2735
1.18012
68.5106
498.896
606.177
609.114
611.969
652.622
555.41
191.544
2.60029
2.0301
6.87222
50.0364
28.2599
1.15966
1.01438
1.01278
1.52436
46.9296
1.03509
1.01865
1.10847
127.026
566.65
652.914
652.935
652.622
648.41
375.695
262.898
375.521
316.847
26.1373
1.20168
1.01557
1.00731
1.03237
52.9612
1.01668
1.0022
1.00187
1.00862
1.05458
194.768
495.324
599.922
601.633
598.083
545.464
404.945
224.741
13.3477
1.17306
1.00672
1.00032
1.0001
53.0415
1.10659
1.00157
1.00094
1.00066
1.00033
1.00675
15.8486
79.5608
130.368
167.899
102.589
20.8829
8.62614
7.98706
1.68542
1.00169
1.00005
1.00005
53.0564
1.62672
1.00093
1.00064
1.00031
1.00007
1.00003
1.00003
1.47955
1.24634
1.04285
1.00018
1.00033
1.00005
1.00005
1.00005
1.00005
1.00005
1.00005
53.2713
1.50002
1.01209
1.00438
1.00487
1.00002
1.00001
1.00001
1.00002
1.00004
1.00001
1.00008
1.00005
1.00005
1.00005
1.00005
1.00005
1.00005
1.00005
53.357
1.00239
1.00777
1.01084
1.00573
1.00098
1.00001
1.00001
1.00005
1.00021
1.00001
1.00046
1.00039
1.00005
1.00015
1.00011
1.00006
1.00006
1.00015
53.3754
1
1
1.00002
1
1.00127
1.00013
1.00001
1
1
1.00001
1.00001
1
1.00007
1.00127
1.00123
1.0004
1.00016
1.00015
53.3725
1
1
1
1
1
1.00008
1.00002
1
1
1
1
1
1.00021
1.00139
1.00138
1.00063
1.0375
1.0006
53.3478
1
1
1.00001
1.00001
1
1
1
1
1
1
1
1
1
1.00085
1.00139
1.00044
1.35123
1.00133
53.2902
1
1.00001
1.00001
1.00001
1
1
1
1
1
1
1
1
1
1
1.00118
1.00045
1.36275
1.00149
53.1831
1
1
1
1
1
1
1
1
1
1
1
1
1
1
1.00047
1.00023
1.36267
1.00052
53.001
1
1
1
1
1
1
1
1
1
1
1
1
1
1
1.00021
1.00022
1.09588
1.00024
52.7308
1
1
1
1
1
1
1
1
1
1
1
1
1
1
1.00017
1.00023
1.00023
1.00023
52.4738
1
1
1
1
1
1
1
1
1
1.00007
1.00005
1.00001
1.00003
1.00044
1.00031
1.00022
1.00022
1.00023
51.6395
1
1
1
1
1
1
1
1
1.00003
1.00083
1.00076
1.00007
1.00026
1.00066
1.00046
1.00024
1.00447
1.0003
24.6104
1
1
1
1
1
1
1
1
1.00072
1.00095
1.00095
1.00009
1.00028
1.00066
1.00034
1.00024
1.03289
1.00101
1.00833
1
1
1
1
1
1
1
1.0001
1.00095
1.00095
1.00015
1.00004
1.00008
1.00066
1.00035
1.01924
1.05718
1.11933
1.0516
1
1
1
1
1
1
1
1.00039
1.00095
1.00081
1.00004
1.00004
1.00005
1.00032
1.04458
1.08461
1.08128
1.82542
1.10366
1
1
1
1
1
1
1
1.00032
1.00095
1.00022
1.00005
1.00004
1.00007
1.00026
1.03053
1.05436
1.07445
1.82542
1.14813
1
1
1
1
1
1
1
1
1.00069
1.00036
1.00246
1.00205
1.00406
1.00235
1.00317
1.00151
1.01385
1.82542
1.12055
1
1
1
1
1
1
1
1
1
1.00025
1.011
1.02442
1.0307
1.02799
1.02116
1.00154
1.00006
1.20992
1.03114
1
1
1
1
1
1
1
1
1
1
1.00958
1.03063
1.03075
1.03063
1.02502
1.00255
1
1
1
1
1
1
1
1
1
1
1
1
1
1
1.01085
1.02003
1.00842
1
1
1
1
1
1
1
1
1
1
1
1
1
1
1
1
1
1
1
1
1
1
1
1
1
1
1
1
1
1
1
1
1
1
1
1
1
1
1
1
1
1
1
1
1
1
1
1
1
1
1
1
1
1
1
1
1
1
1
1
1
1
1
1
1
1
1
1
1
1
1
1
1
1
1
1
1
1
1
1
1
1
1
1
1
1
1
1
1
1
1
1
1
1
1
1
1
1
1
1
1
1
1
1
1
1
1
1
1
1
1
1
1
1
1
1
1
1
1
1
1
1
1
1
1
1
1
1
1
1
1
1
1
1
1
1
1
1
1
1
1
1
1
1
1
1
1
1
1
1
1
1
1
1
1
1
1
)
;

boundaryField
{
    leftWall
    {
        type            calculated;
        value           nonuniform List<scalar> 
50
(
1000
1000
1000
1000
1000
1000
1000
1000
728.169
201.523
12.2475
2.08859
1.27483
1.07715
1.02226
1.00765
1.00257
1.00063
1.00013
1.00002
1
1
1
1
1
1
1
1
1
1
1
1
1
1
1
1
1
1
1
1
1
1
1
1
1
1
1
1
1
1
)
;
    }
    rightWall
    {
        type            calculated;
        value           nonuniform List<scalar> 
50
(
856.061
842.983
783.428
717.44
774.231
773.432
726.788
266.745
316.128
794.636
881.406
881.666
880.932
704.867
52.6981
1.16121
1.52416
12.2735
46.9296
52.9612
53.0415
53.0564
53.2713
53.357
53.3754
53.3725
53.3478
53.2902
53.1831
53.001
52.7308
52.4738
51.6395
24.6104
1.00833
1.0516
1.10366
1.14813
1.12055
1.03114
1
1
1
1
1
1
1
1
1
1
)
;
    }
    lowerWall
    {
        type            calculated;
        value           nonuniform List<scalar> 
62
(
1000
1000
1000
1000
1000
1000
1000
1000
1000
1000
1000
1000
1000
1000
999.994
994.099
962.05
957.782
997.002
997.014
995.952
995.05
998.08
998.08
999.948
999.948
999.948
1000
999.99
999.958
999.949
998.927
997.992
996.914
995.846
986.22
993.248
996.841
966.161
986.818
986.898
986.879
957.35
986.22
999.455
994.776
970.717
968.79
970.947
954.249
768.005
777.942
854.111
824.931
685.728
685.728
742.692
775.527
772.838
821.456
858.789
856.061
)
;
    }
    atmosphere
    {
        type            calculated;
        value           uniform 1;
    }
    defaultFaces
    {
        type            empty;
    }
}


// ************************************************************************* //
