/*--------------------------------*- C++ -*----------------------------------*\
  =========                 |
  \\      /  F ield         | OpenFOAM: The Open Source CFD Toolbox
   \\    /   O peration     | Website:  https://openfoam.org
    \\  /    A nd           | Version:  13
     \\/     M anipulation  |
\*---------------------------------------------------------------------------*/
FoamFile
{
    format      ascii;
    class       volScalarField;
    location    "0.25";
    object      alpha.water;
}
// * * * * * * * * * * * * * * * * * * * * * * * * * * * * * * * * * * * * * //

dimensions      [];

internalField   nonuniform List<scalar> 
2268
(
1
1
1
1
1
1
1
1
1
1
1
1
1
1
1
1
1
1
1
1
0.962803
0.813425
0.81317
1
1
1
1
1
1
1
1
1
1
1
1
1
1
1
1
1
1
1
1
0.996212
0.969313
0.884415
1
1
1
1
1
1
1
1
1
1
1
1
1
1
1
1
1
1
1
1
1
0.999944
0.968923
1
1
1
1
1
1
1
1
1
1
1
1
1
1
1
1
1
1
1
1
1
0.999993
0.96631
1
1
1
1
1
1
1
1
1
1
1
1
1
1
1
1
1
1
1
1
1
0.999998
0.966093
1
1
1
1
1
1
1
1
1
1
1
1
1
1
1
1
1
1
1
1
1
1
0.966132
1
1
1
1
1
1
1
1
1
1
1
1
1
1
1
1
1
1
1
1
1
1
0.968335
1
1
1
1
1
1
1
1
1
1
1
1
1
1
1
1
1
1
1
1
1
1
0.993986
5.9503e-14
2.29786e-14
3.84096e-16
7.17374e-19
1.87216e-20
5.00603e-22
1.35322e-23
3.64702e-25
1.13742e-26
4.30941e-28
1.57091e-29
4.38197e-31
1.02244e-32
2.09128e-34
3.63922e-36
5.01664e-38
4.84318e-40
2.90417e-42
1.54216e-42
1.23152e-12
1.32303e-12
4.17046e-14
2.85071e-17
7.17909e-19
1.87125e-20
8.45944e-22
3.08223e-23
1.16338e-24
4.95106e-26
2.22208e-27
6.82267e-29
1.66366e-30
3.54737e-32
6.27651e-34
8.27088e-36
7.90098e-38
3.31554e-40
2.18125e-42
9.39212e-11
6.98285e-11
1.86309e-12
2.50725e-15
6.52198e-17
2.56336e-18
9.09965e-20
2.79234e-21
8.9309e-23
3.14704e-24
1.32652e-25
3.98264e-27
9.32609e-29
1.86008e-30
2.87222e-32
3.59143e-34
3.05264e-36
1.68761e-38
2.65961e-40
3.98776e-09
2.56407e-09
6.59931e-11
1.29531e-13
4.43247e-15
1.80215e-16
5.40806e-18
1.54033e-19
4.54049e-21
1.39767e-22
5.3307e-24
1.56167e-25
3.55352e-27
6.60738e-29
9.64478e-31
1.24074e-32
1.31341e-34
7.3574e-37
1.46001e-38
1.12722e-07
7.05976e-08
2.11865e-09
3.37897e-12
9.92957e-14
7.63334e-15
2.33876e-16
5.91585e-18
1.49506e-19
4.32142e-21
1.51063e-22
4.52882e-24
1.01243e-25
1.7397e-27
2.63518e-29
4.06164e-31
4.35383e-33
2.49119e-35
5.53538e-37
2.30147e-06
1.63963e-06
7.29194e-08
9.47152e-11
2.33184e-12
8.75503e-14
4.83926e-15
1.27143e-16
2.67035e-18
7.31961e-20
2.71355e-21
1.07416e-22
2.43715e-24
3.73166e-26
7.96157e-28
1.04516e-29
1.27191e-31
7.82029e-34
1.74209e-35
3.15045e-05
3.43786e-05
1.94336e-06
1.32374e-09
3.60942e-11
1.07449e-12
4.32061e-14
2.9817e-15
3.80202e-17
8.89836e-19
3.94831e-20
3.09908e-21
7.7373e-23
9.56746e-25
1.77164e-26
2.13309e-28
2.45143e-30
1.76699e-32
4.28622e-34
0.00014782
0.00013568
5.1786e-06
1.93872e-08
1.29333e-09
2.20518e-11
8.7901e-13
1.07317e-13
3.70896e-15
3.75664e-17
8.89836e-19
1.60002e-19
4.53206e-21
4.04107e-23
5.92136e-25
9.39251e-27
1.11558e-28
8.04913e-31
1.14347e-32
1
1
1
1
1
1
1
1
1
1
1
1
1
1
1
1
1
1
1
1
1
1
0.999008
1
1
1
1
1
1
1
1
1
1
1
1
1
0.999999
0.999996
0.999999
0.999999
0.99998
0.999999
1
1
1
0.999574
1
1
1
1
1
1
1
1
1
0.999999
0.999998
0.999996
0.999993
0.999984
0.999938
0.99997
0.999973
0.999893
0.999998
0.999995
1
1
0.999999
1
1
0.999999
0.999999
0.999999
0.999999
0.999998
0.999996
0.999992
0.999985
0.999965
0.999921
0.999682
0.999629
0.999245
0.98835
0.945979
0.891438
0.854839
0.893532
0.999993
0.999999
0.999963
1
0.999988
0.999983
0.999985
0.999983
0.999977
0.999964
0.999933
0.999881
0.999726
0.999442
0.99882
0.992364
0.915396
0.719097
0.45246
0.241322
0.138526
0.0794127
0.100994
0.173777
0.336456
0.576203
0.999988
0.999813
0.999799
0.999808
0.999775
0.99969
0.999498
0.999074
0.998249
0.989828
0.9289
0.76269
0.4932
0.158158
0.00025516
0.00010246
6.84168e-05
7.70391e-05
0.000162019
0.000798777
0.00066621
0.00141002
0.0156327
0.99974
0.99791
0.997846
0.997797
0.997294
0.989183
0.955073
0.876108
0.728654
0.478794
0.23626
0.005713
6.36039e-05
6.78902e-05
6.262e-05
5.99647e-05
5.9519e-05
6.93615e-05
0.000151266
0.000288084
0.000379894
0.000624384
0.000557287
0.954072
0.757612
0.746018
0.711342
0.624807
0.475744
0.312285
0.161321
0.0228426
2.01224e-06
2.53062e-05
6.47039e-06
3.55234e-05
6.1689e-05
5.99666e-05
5.96692e-05
5.98944e-05
5.98944e-05
0.00169613
0.00202166
0.00196537
0.00052508
0.00012214
0.298502
0.083028
0.0663036
0.0444936
0.0064583
9.22702e-14
9.42922e-13
2.76373e-11
7.35135e-11
3.94226e-10
1.34876e-07
1.17798e-06
1.74018e-05
0.000120446
6.87133e-05
5.99647e-05
5.96804e-05
0.00106717
0.00202166
0.00202166
0.00202166
0.000465014
2.05655e-05
-2.03728e-20
-8.18535e-58
6.53574e-21
7.59369e-19
7.67105e-17
4.89055e-15
8.56236e-14
1.05402e-12
2.75506e-12
1.28482e-10
9.42541e-08
4.49189e-06
0.000368876
0.000489191
0.000240255
6.38444e-05
0.000204838
0.0019985
0.00201348
0.00202166
0.00062876
2.02311e-05
2.14891e-06
-6.64666e-20
4.5311e-20
4.38005e-18
2.00588e-16
1.08525e-14
4.2455e-13
1.10707e-11
2.10682e-12
3.13215e-12
2.52167e-10
4.35797e-07
0.000384122
0.000489584
0.000488453
0.000255474
8.07824e-05
0.00144252
0.00199163
0.00200531
0.000750804
4.48586e-06
5.98332e-07
4.02535e-07
-7.19089e-20
6.70481e-19
8.34088e-17
7.17989e-15
4.35491e-13
6.91234e-12
4.13922e-11
4.39188e-12
6.44374e-11
1.02465e-09
8.51966e-06
0.000450635
0.000484348
0.00038996
0.000268174
0.00137471
0.0019289
0.00195863
0.000784476
4.91952e-07
7.11134e-08
6.62574e-09
9.38655e-09
-4.63824e-20
1.8074e-18
2.7181e-16
3.45668e-14
2.01364e-12
1.9446e-11
4.98886e-11
6.88864e-12
1.99074e-08
5.41693e-09
3.23482e-05
4.3685e-05
0.00038182
0.000475423
0.000909398
0.00175885
0.00172845
0.000361882
8.71255e-08
1.37477e-08
4.62713e-10
1.66644e-10
7.70548e-09
-1.36926e-20
2.48426e-18
4.19412e-16
7.38683e-14
4.10595e-12
2.8175e-11
4.98744e-11
1.49831e-11
3.84543e-08
1.67385e-07
2.45102e-08
2.15186e-08
4.45764e-07
0.000492539
0.00105375
0.00105357
2.72249e-12
2.6506e-12
3.69184e-12
1.33191e-11
1.10377e-10
9.25122e-11
3.39625e-08
7.35704e-21
2.60344e-18
4.61364e-16
1.00724e-13
5.38049e-12
3.13509e-11
4.37459e-11
3.31287e-10
2.36885e-08
1.56622e-07
8.91057e-09
2.0549e-09
6.95595e-06
5.09976e-05
2.00168e-05
4.07353e-13
3.67552e-12
3.10378e-11
1.03513e-10
1.88263e-10
6.67998e-10
1.5657e-10
9.64438e-09
1.38004e-20
1.58117e-18
3.22237e-16
1.0694e-13
5.56988e-12
2.78158e-11
3.36439e-11
1.39379e-10
1.45984e-10
5.82755e-10
1.4041e-08
2.92959e-10
6.10749e-11
2.15002e-11
4.07353e-13
2.42499e-13
1.0159e-11
4.40761e-11
1.08022e-10
1.5982e-10
5.37205e-10
2.65519e-09
6.78899e-09
7.52842e-21
3.6122e-19
7.99551e-17
7.23574e-14
3.26759e-12
1.2916e-11
1.94322e-11
1.73951e-11
6.74812e-10
1.5492e-08
3.68141e-08
1.90044e-08
2.38548e-09
3.38079e-10
2.88072e-10
5.61142e-14
9.08241e-12
2.76838e-11
4.99287e-11
1.00429e-10
3.49488e-10
1.14857e-09
1.01948e-08
1.21326e-21
2.44557e-20
4.88203e-18
2.06681e-14
8.19534e-13
3.4236e-12
8.11402e-12
1.28036e-11
1.11724e-09
2.45453e-08
3.68456e-08
3.58608e-08
4.57674e-09
4.23757e-10
3.70894e-10
2.61839e-14
2.41629e-12
1.06009e-11
2.801e-11
6.51627e-11
2.54295e-10
1.33901e-09
7.78372e-09
1.22592e-22
6.18099e-22
1.07697e-18
2.61144e-15
1.04193e-13
5.25195e-13
3.92943e-12
1.57013e-11
1.58472e-11
6.16346e-10
1.83513e-08
9.07932e-09
6.67135e-10
9.29216e-14
2.61866e-14
2.21215e-14
8.22023e-13
3.90959e-12
1.41637e-11
4.39146e-11
1.82528e-10
1.23218e-09
6.53875e-09
1.36483e-23
4.56837e-22
1.89121e-18
2.66031e-16
5.42444e-15
4.23578e-14
2.08169e-12
1.57508e-11
1.62882e-11
5.55345e-13
3.68328e-13
3.21362e-13
3.06697e-13
6.42702e-13
8.08909e-13
7.25243e-15
1.32031e-13
1.23408e-12
6.9669e-12
3.06986e-11
1.3755e-10
1.00801e-09
6.85795e-09
2.36485e-26
2.073e-22
1.6671e-18
3.17848e-17
7.2155e-17
5.7072e-16
4.27093e-13
4.9122e-12
1.24837e-11
5.77271e-12
2.36135e-12
6.50464e-13
3.06998e-13
2.97975e-13
4.90286e-13
2.93636e-15
3.28534e-14
4.6848e-13
3.91456e-12
2.20854e-11
1.07528e-10
8.95393e-10
7.22623e-09
1.54334e-26
3.21618e-26
1.10779e-24
1.65634e-22
2.36411e-20
2.84581e-17
3.06343e-14
6.39177e-13
3.22402e-12
7.45533e-12
3.96043e-12
9.96327e-13
1.5337e-13
1.88047e-14
2.87695e-15
1.62031e-15
1.07114e-14
2.03095e-13
2.26937e-12
1.54792e-11
7.99648e-11
7.10368e-10
6.77196e-09
7.77102e-28
1.43886e-26
4.03246e-25
5.56139e-23
9.00486e-21
3.87329e-17
6.67857e-15
9.57043e-14
3.928e-13
1.08414e-12
6.52614e-13
3.83653e-13
1.03664e-13
1.45565e-14
1.55033e-15
8.14658e-16
4.57722e-15
9.23932e-14
1.28042e-12
1.01431e-11
5.34615e-11
4.57674e-10
4.48776e-09
2.023e-30
4.00223e-28
9.68957e-25
8.33031e-23
7.66758e-21
2.89633e-19
5.53547e-16
2.04577e-14
1.02399e-13
1.94791e-13
2.80305e-13
1.6425e-13
5.23129e-14
5.14654e-15
7.42076e-16
3.47299e-16
1.92923e-15
3.82317e-14
6.40308e-13
6.01035e-12
3.43659e-11
2.71426e-10
2.71517e-09
3.01348e-32
1.74703e-29
2.95037e-27
9.83469e-26
9.88921e-24
1.49445e-22
5.15193e-19
3.98486e-16
6.02364e-15
1.96146e-14
2.50509e-14
1.3317e-14
8.62696e-15
1.33106e-15
2.63118e-16
1.27599e-16
7.38423e-16
1.46196e-14
2.78471e-13
3.19244e-12
2.1357e-11
1.52729e-10
1.64466e-09
6.72506e-34
3.40814e-32
1.78056e-30
4.73534e-28
4.86837e-26
2.58724e-23
9.46177e-22
9.89247e-19
1.98441e-17
6.54068e-17
9.16111e-17
9.14166e-17
5.49092e-17
3.95368e-17
3.3799e-17
3.57545e-17
2.36396e-16
5.11476e-15
1.07269e-13
1.52353e-12
1.18736e-11
7.99253e-11
9.0177e-10
1.03768e-36
9.59394e-35
7.01891e-32
7.19162e-30
9.173e-28
2.98459e-26
1.4926e-23
4.66074e-21
1.32514e-19
6.09001e-19
1.25386e-18
1.76605e-18
2.157e-18
2.38834e-18
2.27471e-18
4.51889e-18
6.74666e-17
1.49532e-15
3.21557e-14
5.32663e-13
5.3982e-12
4.88539e-11
5.70094e-10
2.62224e-40
6.14616e-39
8.39398e-36
1.16443e-33
1.23281e-32
5.0262e-30
6.82483e-28
6.08799e-26
1.23807e-22
4.06913e-21
1.89012e-20
3.42257e-20
3.83119e-20
2.89933e-20
5.22858e-20
6.4772e-19
2.06042e-17
4.29311e-16
8.46284e-15
1.4936e-13
2.26364e-12
3.07563e-11
3.35371e-10
9.17331e-43
7.89453e-41
3.62918e-39
1.07526e-36
1.85829e-35
1.04939e-32
1.23248e-30
7.64794e-31
6.37666e-26
1.34184e-23
9.3954e-23
1.99912e-22
2.062e-22
4.26569e-22
6.7563e-21
3.03972e-19
8.63162e-18
1.80569e-16
3.28979e-15
5.58557e-14
9.32379e-13
1.52501e-11
1.70477e-10
2.93184e-47
2.67303e-46
7.07044e-42
3.41422e-41
3.91856e-39
6.40963e-37
9.212e-35
2.35858e-31
2.33571e-30
3.08463e-27
7.0108e-26
1.8655e-25
1.2153e-24
3.5326e-23
5.15495e-21
1.63109e-19
3.18688e-18
6.90383e-17
1.28064e-15
2.03985e-14
2.89334e-13
2.78685e-12
3.36062e-11
2.42399e-49
3.14349e-48
2.60302e-44
2.3799e-43
4.71912e-41
7.47539e-39
9.25652e-37
1.2366e-34
2.77598e-32
7.45241e-31
4.37102e-29
2.21301e-27
9.88929e-26
2.62859e-23
4.72803e-22
8.29487e-21
2.63755e-19
5.40528e-18
1.02274e-16
1.72297e-15
2.39922e-14
3.08015e-13
7.12211e-12
1.33433e-50
9.8247e-48
1.47172e-46
1.43326e-44
3.03412e-42
5.04763e-40
6.60579e-38
7.61305e-36
1.1648e-32
4.4925e-32
3.19554e-30
1.14524e-27
6.92582e-26
8.15788e-25
2.03667e-23
6.34444e-22
1.66999e-20
3.76565e-19
7.41415e-18
1.28425e-16
1.94236e-15
4.46795e-14
8.21422e-13
9.96566e-53
5.29217e-51
2.2146e-47
1.22173e-45
2.42574e-43
4.16537e-41
5.57203e-39
1.15225e-36
7.29614e-35
3.83249e-32
2.0268e-30
4.46444e-29
7.7574e-28
3.07862e-26
1.11838e-24
3.45323e-23
9.11462e-22
2.12841e-20
4.21936e-19
7.27984e-18
1.07303e-16
2.34282e-15
7.96509e-14
6.94908e-54
8.54059e-53
5.40873e-50
2.02835e-47
4.98694e-45
9.0017e-43
1.26678e-40
1.46202e-38
1.83378e-36
1.28133e-34
8.40868e-33
4.85684e-31
2.47748e-29
1.08531e-27
3.74559e-26
1.14809e-24
3.17175e-23
7.66977e-22
1.62843e-20
3.02539e-19
4.82482e-18
1.11289e-16
4.91823e-15
3.52489e-56
8.35562e-55
6.13018e-52
2.48206e-49
6.5685e-47
1.27312e-44
1.92247e-42
2.29483e-40
2.78628e-38
2.28804e-36
1.51271e-34
9.05762e-33
4.82964e-31
2.0212e-29
7.72136e-28
2.66319e-26
8.02725e-25
2.11366e-23
4.89478e-22
9.86441e-21
1.70713e-19
4.69031e-18
2.3939e-16
4.01746e-59
3.49264e-57
3.16232e-54
1.30269e-51
3.5587e-49
7.28816e-47
1.17618e-44
1.56578e-42
1.71946e-40
1.89118e-38
1.52454e-36
9.79308e-35
5.10959e-33
2.51533e-31
1.11062e-29
4.25569e-28
1.42258e-26
4.13096e-25
1.01265e-23
2.18439e-22
4.0822e-21
1.43847e-19
8.801e-18
3.49124e-62
5.95103e-60
5.23773e-57
2.5511e-54
8.29574e-52
1.99122e-49
3.73432e-47
5.68226e-45
7.20048e-43
7.64146e-41
6.87267e-39
5.30922e-37
3.53777e-35
2.03922e-33
9.74293e-32
4.07083e-30
1.48965e-28
4.78109e-27
1.34837e-25
3.34731e-24
7.21968e-23
3.26342e-21
2.51437e-19
6.33231e-66
2.66172e-63
3.29629e-60
2.01391e-57
7.98028e-55
2.30621e-52
5.1723e-50
8.76617e-48
1.22447e-45
1.45406e-43
1.47283e-41
1.28463e-39
9.69375e-38
6.36033e-36
3.64125e-34
1.8225e-32
7.98727e-31
3.07201e-29
1.03893e-27
3.09455e-26
8.0333e-25
5.18747e-23
5.1888e-21
2.37051e-70
3.11524e-67
5.39783e-64
3.48937e-61
1.47558e-58
4.78719e-56
1.24275e-53
2.65049e-51
4.72556e-49
7.14271e-47
9.20571e-45
1.0191e-42
9.73633e-41
8.07967e-39
5.84198e-37
3.68906e-35
2.03904e-33
9.88959e-32
4.21728e-30
1.5842e-28
5.19786e-27
5.54225e-25
6.90238e-23
5.53545e-76
2.68625e-72
3.97109e-69
3.42842e-66
2.07965e-63
9.61633e-61
3.54512e-58
1.07068e-55
2.69579e-53
5.72628e-51
1.03469e-48
1.60058e-46
2.13106e-44
2.45264e-42
2.44923e-40
2.12944e-38
1.61694e-36
1.07528e-34
6.27757e-33
3.2235e-31
1.44734e-29
4.3104e-27
4.92342e-25
4.16441e-84
5.95713e-80
1.65889e-76
2.55751e-73
2.72606e-70
2.20296e-67
1.41539e-64
7.43554e-62
3.25053e-59
1.19639e-56
3.7372e-54
9.96503e-52
2.27788e-49
4.47935e-47
7.60074e-45
1.11612e-42
1.42236e-40
1.57722e-38
1.525e-36
1.28702e-34
9.44357e-33
2.8185e-29
1.1571e-27
3.50063e-101
2.24164e-95
4.36447e-91
1.98793e-87
6.49618e-84
1.71659e-80
3.58316e-77
6.12963e-74
8.75632e-71
1.05624e-67
1.08563e-64
9.54986e-62
7.21119e-59
4.6823e-56
2.61764e-53
1.2617e-50
5.25179e-48
1.89124e-45
5.90179e-43
1.59761e-40
3.7479e-38
3.37711e-34
3.96288e-32
0.999403
0.999832
0.577027
0.0164327
0.999893
0.999902
0.971841
0.924664
0.999963
0.999918
0.999186
0.999124
0.999918
0.999902
0.999841
0.9996
0.80397
0.998668
0.999598
0.999013
0.0469823
0.111329
0.191658
0.284848
0.000945271
0.00342962
0.00468345
0.00166787
0.000124914
0.000192099
0.000220004
0.000899676
1.69992e-05
2.08317e-05
2.15436e-05
2.41349e-05
2.39515e-06
2.01682e-06
1.78541e-06
1.75944e-06
1.06316e-06
2.85989e-07
8.76653e-08
9.10619e-08
1.63046e-08
2.34042e-08
2.12325e-08
2.53679e-08
1.82697e-08
1.89513e-08
1.98613e-08
2.69334e-08
4.84055e-08
4.71804e-08
2.0935e-08
2.48693e-08
4.84055e-08
3.68545e-08
2.15541e-08
2.72185e-08
7.38367e-09
8.55814e-09
1.24829e-08
2.19166e-08
1.13781e-08
1.23553e-08
2.21275e-08
5.12993e-08
8.46891e-09
1.2553e-07
5.14837e-08
1.51249e-07
7.64715e-09
2.22317e-07
3.38849e-07
4.25688e-07
3.15446e-08
2.43183e-07
1.28745e-06
3.4758e-06
5.29431e-08
3.48845e-07
1.53942e-06
4.85845e-06
5.64422e-08
3.67143e-07
1.38014e-06
5.40876e-06
3.72026e-08
2.59406e-07
1.02832e-06
3.62474e-06
2.34119e-08
1.71261e-07
7.03063e-07
2.4026e-06
1.54097e-08
1.14367e-07
4.83124e-07
1.76625e-06
9.16534e-09
7.88596e-08
3.48791e-07
1.353e-06
6.16789e-09
5.34056e-08
2.4311e-07
9.72365e-07
3.59709e-09
2.58814e-08
1.14964e-07
4.63091e-07
1.79183e-09
8.40374e-09
3.89857e-08
1.57368e-07
3.32866e-10
1.4872e-09
6.22516e-09
2.41205e-08
3.4417e-11
1.5502e-10
7.10932e-10
2.66247e-09
2.66224e-12
1.56938e-11
7.03633e-11
2.38619e-10
3.26171e-13
2.5868e-12
8.16963e-12
1.53876e-11
2.5161e-14
3.59203e-13
7.74005e-13
9.0198e-13
1.28032e-15
2.07559e-14
4.89646e-14
5.11276e-14
4.7636e-17
9.05676e-16
2.39439e-15
2.78597e-15
1.35681e-18
3.17061e-17
9.72604e-17
1.235e-16
2.70748e-20
8.32266e-19
3.08279e-18
4.29687e-18
3.20957e-22
1.41393e-20
7.14262e-20
1.1152e-19
2.05113e-24
1.30884e-22
9.89235e-22
1.97582e-21
4.43669e-27
4.45265e-25
5.14503e-24
1.68222e-23
9.14198e-31
8.36455e-31
4.16422e-28
5.15226e-26
0.0278441
0.000108033
4.41863e-06
6.5602e-07
2.89386e-08
6.50521e-10
2.82384e-11
4.29033e-12
3.50242e-13
3.46493e-15
2.9208e-17
1.28576e-17
5.31715e-19
7.78031e-21
6.9439e-23
6.26429e-25
9.82472e-27
7.64546e-29
6.05428e-31
0.57199
0.000554088
0.000159709
1.46718e-05
2.73896e-07
1.87094e-08
7.10954e-10
1.64842e-10
1.49194e-11
4.65947e-13
1.57749e-15
1.15177e-15
7.67568e-17
1.27581e-18
1.00164e-20
8.14894e-23
1.38923e-24
1.48387e-26
1.02808e-28
0.996675
0.830517
0.120819
0.000130277
5.01571e-06
3.71605e-07
2.90965e-08
1.20901e-08
7.8894e-10
1.0806e-11
1.7773e-13
3.64339e-14
4.10715e-15
9.66523e-17
1.16735e-18
1.59096e-20
3.11193e-22
3.12181e-24
2.96128e-26
0.999014
0.996851
0.896413
0.243827
0.000360963
1.63167e-05
1.72216e-06
3.59775e-07
1.59751e-08
7.77068e-10
2.36378e-11
2.9038e-12
9.04269e-14
5.04247e-15
1.04388e-16
2.39571e-18
4.69303e-20
5.36278e-22
7.01354e-24
0.996852
0.994591
0.993317
0.918822
0.27159
0.000127796
6.38146e-05
6.77519e-06
5.42943e-07
3.54484e-08
1.61737e-09
1.24161e-10
9.48836e-12
3.10078e-13
7.60883e-15
2.18355e-16
5.00682e-18
6.07914e-20
1.21178e-21
0.595194
0.993306
0.985376
0.971736
0.854986
0.202149
0.00108664
0.000162143
1.39254e-05
1.02408e-06
5.8884e-08
3.07097e-09
2.80689e-10
1.64765e-11
5.2807e-13
1.4314e-14
3.61775e-16
4.11516e-18
1.20843e-19
0.016417
0.124486
0.693123
0.959936
0.922114
0.621191
0.0726818
0.00187432
0.000207465
1.76739e-05
1.29619e-06
7.40305e-08
5.6346e-09
3.71715e-10
1.8422e-11
5.78731e-13
1.3205e-14
1.63301e-16
5.55524e-18
0.00047855
0.000723658
0.0331592
0.642556
0.89132
0.852798
0.287568
0.00735225
0.00101012
0.000119424
1.12591e-05
8.62517e-07
6.87492e-08
4.68988e-09
2.49693e-10
9.34843e-12
2.29865e-13
3.14827e-15
1.24276e-16
4.3149e-05
7.25642e-05
0.000310769
0.111463
0.762287
0.796558
0.520049
0.0495619
0.00267424
0.000386489
4.51352e-05
4.13e-06
3.78243e-07
2.81429e-08
1.63784e-09
6.97327e-11
1.90795e-12
2.75626e-14
1.81936e-15
2.94528e-06
7.8516e-06
2.47173e-05
0.000307033
0.460147
0.764546
0.636588
0.113032
0.00495485
0.00080207
0.000107498
1.16133e-05
1.15037e-06
9.2205e-08
5.78517e-09
2.68358e-10
8.084e-12
1.22147e-13
1.5748e-14
1.60516e-07
7.89177e-07
2.43685e-06
2.43507e-05
0.159019
0.691687
0.645669
0.216459
0.00731117
0.00127772
0.000185612
2.25466e-05
2.38152e-06
2.01811e-07
1.33399e-08
6.54574e-10
2.27854e-11
3.96343e-13
7.72008e-14
4.30496e-08
1.39544e-07
4.25982e-07
3.93769e-06
0.0396036
0.567863
0.593925
0.292002
0.0118217
0.00159504
0.000244177
3.09906e-05
3.54961e-06
3.23049e-07
2.36455e-08
1.34606e-09
5.47537e-11
1.55863e-12
2.41095e-13
1.00398e-07
1.50372e-07
3.29585e-07
5.45125e-07
0.0061917
0.457664
0.571672
0.273235
0.0103031
0.00159865
0.000250457
3.24506e-05
3.60929e-06
3.44152e-07
2.67798e-08
1.56488e-09
6.43717e-11
2.2221e-12
5.17713e-13
1.82821e-06
2.75895e-06
8.87319e-07
9.24677e-07
0.00580122
0.382522
0.538032
0.219665
0.00755231
0.00140491
0.000221677
2.8899e-05
3.02363e-06
2.54e-07
1.6991e-08
9.64098e-10
4.56614e-11
1.7737e-12
4.76586e-13
5.59841e-06
8.57294e-06
1.2793e-06
1.25799e-06
0.0160918
0.370916
0.481739
0.148094
0.00565432
0.00102776
0.000159654
2.02267e-05
2.4787e-06
2.41983e-07
1.89537e-08
1.15447e-09
5.32208e-11
1.59101e-12
2.7153e-13
9.64702e-06
1.23906e-05
2.38684e-06
1.64659e-06
0.0740763
0.390608
0.389552
0.0878092
0.00379917
0.000646735
9.9422e-05
1.56045e-05
2.01776e-06
2.11477e-07
1.74426e-08
1.11199e-09
5.3258e-11
1.82325e-12
1.35226e-13
2.95329e-05
1.86333e-05
3.59573e-06
2.42457e-06
0.229306
0.37735
0.296548
0.039552
0.00224808
0.000405164
7.61622e-05
1.1815e-05
1.4256e-06
1.43787e-07
1.19017e-08
7.80368e-10
3.97703e-11
1.54301e-12
5.95326e-14
5.94472e-05
2.11125e-05
2.52825e-05
0.0529192
0.276616
0.366871
0.144946
0.0115776
0.0016018
0.000317425
5.52282e-05
7.25861e-06
8.08416e-07
7.82582e-08
6.41212e-09
4.32181e-10
2.34617e-11
9.60598e-13
2.49732e-14
5.83245e-05
2.66383e-05
0.0203799
0.188323
0.264486
0.14875
0.0152853
0.00361366
0.000983652
0.00018533
2.57851e-05
3.15461e-06
3.47532e-07
3.36602e-08
2.81458e-09
2.03643e-10
1.19068e-11
4.69729e-13
9.55494e-15
1.61372e-05
7.43577e-05
7.28393e-05
0.167709
0.245009
0.0369521
0.00417666
0.000703865
0.000154474
3.10124e-05
4.6657e-06
6.98221e-07
9.90878e-08
1.11422e-08
1.04508e-09
8.63049e-11
5.46666e-12
1.94907e-13
3.36994e-15
1.95371e-05
0.000162043
6.80553e-05
0.160182
0.23814
0.0729305
0.00195531
0.000642357
3.38861e-05
4.29874e-06
6.44148e-07
9.10143e-08
1.42829e-08
2.63174e-09
3.7013e-10
3.47934e-11
2.17189e-12
7.26375e-14
1.16868e-15
1.94175e-05
0.000151922
6.54635e-05
0.0771194
0.224336
0.210418
0.00639922
0.000103298
4.91114e-05
1.71224e-06
2.40759e-07
3.32468e-08
3.42041e-09
4.92764e-10
1.11366e-10
1.29494e-11
7.53331e-13
2.51617e-14
4.0762e-16
1.23557e-05
3.12607e-05
6.20298e-05
0.00143895
0.209084
0.200755
0.0710413
0.000605348
0.000177091
7.56442e-06
4.79849e-07
3.18168e-08
2.39495e-09
2.12413e-10
2.66167e-11
3.88337e-12
2.3326e-13
8.18943e-15
1.36829e-16
7.64758e-06
4.56223e-05
0.000488544
0.000493561
0.162593
0.196353
0.196264
0.0150142
0.00029813
0.000100374
9.56129e-06
7.15806e-07
3.21027e-08
9.702e-10
2.00874e-11
6.90611e-13
5.75931e-14
2.49423e-15
4.32172e-17
6.05511e-06
2.76927e-05
0.000248401
0.00135179
0.0289834
0.196264
0.190563
0.099533
0.00377072
0.000139347
1.02157e-05
4.5858e-07
1.39523e-08
3.59225e-10
8.39015e-12
1.68946e-13
1.94266e-14
7.83287e-16
1.30227e-17
4.82705e-06
1.9564e-05
0.000135607
0.00154326
0.00163678
0.114759
0.181071
0.124982
0.00641228
0.000250607
2.17811e-05
1.20593e-06
5.61028e-08
1.79685e-09
4.04113e-11
8.33265e-13
2.02138e-14
3.26098e-16
3.95521e-18
3.39754e-06
1.10174e-05
6.3871e-05
0.000968496
0.00500168
0.0114054
0.0488021
0.0412235
0.00873309
0.000573933
5.8164e-05
3.91565e-06
1.64273e-07
4.87734e-09
1.01908e-10
1.55697e-12
1.7126e-14
1.44127e-16
1.11705e-18
1.68225e-06
6.11705e-06
3.54002e-05
0.000289818
0.00194338
0.00324973
0.00400815
0.0030927
0.00307865
0.000423317
3.6939e-05
2.22383e-06
8.58739e-08
2.22019e-09
5.14467e-11
7.4617e-13
6.43682e-15
4.09041e-17
2.55357e-19
4.94637e-07
3.623e-06
1.65501e-05
5.6973e-05
0.000811805
0.00127508
0.000948961
0.00089546
0.000170639
1.93156e-05
1.48762e-06
6.07821e-08
1.54396e-09
2.96846e-11
1.95617e-12
9.27866e-14
9.60254e-16
8.26541e-18
5.65766e-20
7.69323e-08
5.11279e-07
2.70605e-06
9.52797e-06
0.000197597
0.000301976
0.000189413
0.000211868
5.42466e-05
5.43262e-06
3.95082e-07
1.52876e-08
3.60834e-10
7.20709e-12
5.897e-13
1.9473e-14
2.05614e-16
1.86952e-18
1.31266e-20
8.64318e-09
5.66753e-08
3.12243e-07
1.70758e-06
3.47602e-05
5.34176e-05
3.52254e-05
3.93328e-05
1.36293e-05
1.33722e-06
1.05933e-07
4.3997e-09
1.01049e-10
1.61111e-12
2.19709e-13
4.57879e-15
4.80143e-17
4.41589e-19
2.96701e-21
8.30268e-10
5.5463e-09
3.26097e-08
1.68106e-07
4.47034e-06
7.56058e-06
5.93022e-06
6.68123e-06
2.80639e-06
2.86806e-07
2.43866e-08
1.12347e-09
2.65743e-11
3.29849e-13
6.14878e-14
1.01452e-15
1.076e-17
1.01196e-19
6.54189e-22
6.43907e-11
4.81467e-10
3.02506e-09
1.9853e-08
4.86961e-07
9.52716e-07
8.72e-07
1.03391e-06
5.20151e-07
5.63065e-08
4.97183e-09
2.67924e-10
6.13984e-12
3.58005e-13
1.39922e-14
2.17418e-16
2.34398e-18
2.26269e-20
1.40644e-22
4.67267e-12
3.98893e-11
2.7309e-10
2.20155e-09
4.37419e-08
1.08444e-07
1.18388e-07
1.48422e-07
8.56599e-08
1.03686e-08
9.26999e-10
5.47225e-11
1.13237e-12
1.50955e-13
3.01435e-15
4.54443e-17
4.9841e-19
4.93972e-21
2.94794e-23
4.6307e-13
4.40423e-12
2.85159e-11
1.77239e-10
2.98124e-09
1.13269e-08
1.52329e-08
2.00698e-08
1.25998e-08
1.78154e-09
1.56494e-10
9.18047e-12
6.13133e-13
2.43865e-14
6.04599e-16
9.27928e-18
1.03508e-19
1.05239e-21
6.02617e-24
3.37296e-14
6.30892e-13
5.94601e-12
2.07033e-11
1.74567e-10
1.08652e-09
1.83126e-09
2.59226e-09
1.74301e-09
2.85747e-10
2.49018e-11
2.55275e-12
2.26464e-13
4.9464e-15
1.18745e-16
1.85358e-18
2.10138e-20
2.18829e-22
1.20274e-24
2.03065e-15
3.64992e-14
3.46454e-13
2.4394e-12
1.71713e-11
1.00609e-10
2.10351e-10
3.19416e-10
2.29434e-10
4.66623e-11
5.97482e-12
7.7985e-13
3.03423e-14
9.31685e-16
2.28727e-17
3.62894e-19
4.17667e-21
4.44524e-23
2.34795e-25
9.02823e-17
1.84599e-15
1.45057e-14
1.57269e-13
2.71227e-12
1.77459e-11
2.94239e-11
4.55833e-11
3.06453e-11
7.46694e-12
1.50568e-12
1.19514e-13
5.42269e-15
1.72769e-16
4.3303e-18
6.97934e-20
8.14434e-22
8.83602e-24
4.49404e-26
3.17281e-18
7.40526e-17
4.50161e-16
6.86767e-15
1.79801e-13
2.59307e-12
6.9876e-12
8.16632e-12
5.39387e-12
1.59045e-12
2.58386e-13
2.00341e-14
9.66174e-16
3.16003e-17
8.07994e-19
1.32214e-20
1.56207e-22
1.72254e-24
8.46476e-27
6.91263e-20
1.7326e-18
1.96026e-17
4.17064e-16
1.20936e-14
2.29686e-13
9.80954e-13
1.36403e-12
9.43037e-13
2.76816e-13
4.09859e-14
3.41454e-15
1.70419e-16
5.71835e-18
1.49096e-19
2.47507e-21
2.95622e-23
3.30258e-25
1.3603e-27
8.6955e-22
1.08091e-20
6.50155e-19
2.0141e-17
7.11899e-16
1.87178e-14
9.08024e-14
1.44503e-13
1.19546e-13
3.99932e-14
6.67183e-15
5.83129e-16
3.01153e-17
1.03756e-18
2.75959e-20
4.64695e-22
5.60608e-24
6.32543e-26
2.48238e-28
1.79772e-25
1.17754e-22
1.08098e-20
6.49718e-19
2.15602e-17
6.7498e-16
6.79425e-15
2.989e-14
2.15617e-14
3.88863e-15
5.3249e-16
4.91549e-17
2.65057e-18
9.45883e-20
2.58492e-21
4.44275e-23
5.44394e-25
6.23276e-27
2.48238e-28
)
;

boundaryField
{
    leftWall
    {
        type            zeroGradient;
    }
    rightWall
    {
        type            zeroGradient;
    }
    lowerWall
    {
        type            zeroGradient;
    }
    atmosphere
    {
        type            inletOutlet;
        inletValue      uniform 0;
        value           nonuniform List<scalar> 
46
(
0
0
0
0
0
0
0
0
0
0
0
0
0
0
0
0
0
0
0
0
0
0
0
0
0
0
0
0
1.17754e-22
1.08098e-20
6.49718e-19
2.15602e-17
6.7498e-16
6.79425e-15
2.989e-14
2.15617e-14
3.88863e-15
5.3249e-16
4.91549e-17
2.65057e-18
9.45883e-20
2.58492e-21
4.44275e-23
5.44394e-25
6.23276e-27
2.48238e-28
)
;
    }
    defaultFaces
    {
        type            empty;
    }
}


// ************************************************************************* //
