/*--------------------------------*- C++ -*----------------------------------*\
  =========                 |
  \\      /  F ield         | OpenFOAM: The Open Source CFD Toolbox
   \\    /   O peration     | Website:  https://openfoam.org
    \\  /    A nd           | Version:  13
     \\/     M anipulation  |
\*---------------------------------------------------------------------------*/
FoamFile
{
    format      ascii;
    class       surfaceScalarField;
    location    "0.25";
    object      alphaPhi.water;
}
// * * * * * * * * * * * * * * * * * * * * * * * * * * * * * * * * * * * * * //

dimensions      [0 3 -1 0 0 0 0];

internalField   nonuniform List<scalar> 
4432
(
4.85001e-07
-4.85001e-07
5.12209e-06
-4.63709e-06
1.13105e-05
-6.1884e-06
1.73343e-05
-6.02379e-06
2.26355e-05
-5.30121e-06
2.72907e-05
-4.65519e-06
3.15531e-05
-4.26244e-06
3.56329e-05
-4.07982e-06
3.96325e-05
-3.99953e-06
4.35525e-05
-3.92001e-06
4.73204e-05
-3.76793e-06
5.08124e-05
-3.49199e-06
5.38647e-05
-3.05229e-06
5.62332e-05
-2.36855e-06
5.75727e-05
-1.3395e-06
5.70186e-05
5.54105e-07
5.28923e-05
4.12635e-06
4.35138e-05
9.37845e-06
2.76931e-05
1.58207e-05
6.80734e-06
2.08858e-05
-9.82008e-06
1.83164e-05
-1.49572e-05
4.97779e-06
-1.51156e-05
5.46371e-07
-1.03137e-06
5.21606e-06
-9.30677e-06
1.14102e-05
-1.23826e-05
1.74257e-05
-1.20393e-05
2.27189e-05
-1.05944e-05
2.73783e-05
-9.31461e-06
3.16628e-05
-8.547e-06
3.57793e-05
-8.19631e-06
3.98239e-05
-8.04414e-06
4.37938e-05
-7.88993e-06
4.76163e-05
-7.59038e-06
5.1171e-05
-7.04669e-06
5.42917e-05
-6.17301e-06
5.67885e-05
-4.86538e-06
5.84149e-05
-2.96593e-06
5.92378e-05
-2.68809e-07
5.95727e-05
3.79152e-06
5.84312e-05
1.05199e-05
5.2857e-05
2.13949e-05
3.89888e-05
3.47539e-05
1.78043e-05
3.9733e-05
2.06105e-06
2.17522e-05
-1.4285e-05
6.4737e-07
-1.67875e-06
5.35561e-06
-1.4015e-05
1.15154e-05
-1.85423e-05
1.74534e-05
-1.79773e-05
2.26744e-05
-1.58154e-05
2.72956e-05
-1.39358e-05
3.15816e-05
-1.2833e-05
3.57298e-05
-1.23446e-05
3.98239e-05
-1.21382e-05
4.3853e-05
-1.1919e-05
4.77428e-05
-1.14802e-05
5.13763e-05
-1.06802e-05
5.46011e-05
-9.39781e-06
5.72301e-05
-7.49438e-06
5.90373e-05
-4.77309e-06
5.97297e-05
-9.61214e-07
5.91954e-05
4.32579e-06
5.79413e-05
1.1774e-05
5.66562e-05
2.268e-05
5.31375e-05
3.82727e-05
4.13378e-05
5.15326e-05
2.0496e-05
4.25949e-05
4.73889e-06
8.00399e-07
-2.47915e-06
5.57199e-06
-1.87866e-05
1.16784e-05
-2.46488e-05
1.75001e-05
-2.37989e-05
2.26188e-05
-2.09341e-05
2.71931e-05
-1.85101e-05
3.14906e-05
-1.71305e-05
3.56923e-05
-1.65462e-05
3.98632e-05
-1.63091e-05
4.39819e-05
-1.60377e-05
4.79727e-05
-1.54711e-05
5.17243e-05
-1.44318e-05
5.50957e-05
-1.27692e-05
5.79139e-05
-1.03126e-05
5.99717e-05
-6.83085e-06
6.10209e-05
-2.01038e-06
6.07862e-05
4.56051e-06
5.92007e-05
1.33595e-05
5.71458e-05
2.4735e-05
5.5735e-05
3.96834e-05
5.00466e-05
5.7221e-05
3.11793e-05
6.14623e-05
3.47577e-05
1.0038e-06
-3.48295e-06
5.85126e-06
-2.36341e-05
1.1877e-05
-3.06745e-05
1.75444e-05
-2.94663e-05
2.25362e-05
-2.59259e-05
2.70595e-05
-2.30334e-05
3.13795e-05
-2.14505e-05
3.56528e-05
-2.08196e-05
3.99213e-05
-2.05775e-05
4.41515e-05
-2.02679e-05
4.82676e-05
-1.95872e-05
5.21661e-05
-1.83303e-05
5.57199e-05
-1.6323e-05
5.87749e-05
-1.33676e-05
6.11466e-05
-9.2026e-06
6.26162e-05
-3.48002e-06
6.29381e-05
4.23863e-06
6.18901e-05
1.44075e-05
5.93598e-05
2.72652e-05
5.64638e-05
4.25795e-05
5.18244e-05
6.18604e-05
3.56357e-05
7.7651e-05
6.91999e-05
1.25281e-06
-4.73576e-06
6.17718e-06
-2.85585e-05
1.20902e-05
-3.65875e-05
1.75701e-05
-3.49463e-05
2.2419e-05
-3.07747e-05
2.68935e-05
-2.75079e-05
3.12483e-05
-2.58054e-05
3.5608e-05
-2.51792e-05
3.99882e-05
-2.49577e-05
4.4344e-05
-2.46237e-05
4.86013e-05
-2.38445e-05
5.26678e-05
-2.23969e-05
5.64334e-05
-2.00886e-05
5.97641e-05
-1.66983e-05
6.2496e-05
-1.19345e-05
6.44287e-05
-5.41273e-06
6.53206e-05
3.34675e-06
6.49428e-05
1.47853e-05
6.28654e-05
2.93426e-05
5.89193e-05
4.65256e-05
5.30098e-05
6.77699e-05
3.78603e-05
9.28006e-05
0.000105877
1.53906e-06
-6.27482e-06
6.53489e-06
-3.35543e-05
1.2301e-05
-4.23537e-05
1.75673e-05
-4.02126e-05
2.22673e-05
-3.54748e-05
2.67016e-05
-3.19422e-05
3.11041e-05
-3.02079e-05
3.55609e-05
-2.9636e-05
4.00604e-05
-2.94572e-05
4.45484e-05
-2.91117e-05
4.89566e-05
-2.82527e-05
5.32078e-05
-2.66481e-05
5.72112e-05
-2.4092e-05
6.0852e-05
-2.0339e-05
6.39835e-05
-1.5066e-05
6.64219e-05
-7.85111e-06
6.79207e-05
1.84796e-06
6.82262e-05
1.44797e-05
6.69488e-05
3.06201e-05
6.32696e-05
5.02048e-05
5.63791e-05
7.46605e-05
4.28606e-05
0.000106319
0.00015072
1.84938e-06
-8.1242e-06
6.90337e-06
-3.86083e-05
1.2494e-05
-4.79443e-05
1.75365e-05
-4.52551e-05
2.20952e-05
-4.00334e-05
2.65033e-05
-3.63503e-05
3.09646e-05
-3.46693e-05
3.55237e-05
-3.41951e-05
4.01442e-05
-3.40777e-05
4.47673e-05
-3.37348e-05
4.9337e-05
-3.28224e-05
5.3796e-05
-3.11071e-05
5.80719e-05
-2.83679e-05
6.20646e-05
-2.43317e-05
6.56401e-05
-1.86415e-05
6.8625e-05
-1.08361e-05
7.07715e-05
-2.98454e-07
7.18005e-05
1.34507e-05
7.1422e-05
3.09985e-05
6.88885e-05
5.27383e-05
6.2259e-05
8.129e-05
4.82111e-05
0.000120367
0.000200553
7.62291e-18
-2.90302e-17
1.17162e-19
-4.20068e-19
2.26051e-21
-4.64587e-21
4.18597e-23
-2.40218e-22
8.74467e-25
-2.79616e-24
2.13185e-26
-4.1564e-26
5.47683e-28
-7.91583e-28
1.38206e-29
-1.41531e-29
3.08915e-31
-1.397e-31
7.32771e-33
1.39178e-33
1.90029e-34
1.12081e-34
4.48765e-36
5.33755e-36
9.43254e-38
1.902e-37
1.68925e-39
5.52205e-39
2.42287e-41
1.32959e-40
2.54108e-43
2.65098e-42
2.46275e-45
4.40182e-44
6.74644e-46
5.09922e-46
3.54533e-48
4.53315e-16
-9.20003e-16
1.25505e-17
0
1.8518e-19
-7.23022e-19
4.30205e-21
-4.18393e-20
8.78233e-23
-5.97485e-22
2.25977e-24
-8.52281e-24
6.50646e-26
-1.76226e-25
1.80166e-27
-3.74804e-27
4.37161e-29
-5.14065e-29
1.05578e-30
3.39844e-31
3.03046e-32
5.23616e-32
7.90634e-34
2.94158e-33
1.85286e-35
1.20428e-34
3.71958e-37
3.98627e-36
6.32002e-39
1.12351e-37
8.76152e-41
2.82567e-39
8.0158e-43
5.31052e-41
3.38747e-45
6.55878e-43
2.44577e-45
2.18322e-14
-5.45606e-14
4.41575e-16
0
7.0294e-18
-1.64513e-18
1.7613e-19
-1.8445e-18
3.97507e-21
-3.05655e-20
1.11555e-22
-5.27865e-22
3.33963e-24
-1.25566e-23
9.66296e-26
-2.89009e-25
2.50028e-27
-4.56617e-27
6.21241e-29
1.77066e-29
1.7814e-30
4.39807e-30
4.63473e-32
2.54666e-31
1.07789e-33
1.05179e-32
2.22518e-35
3.4839e-34
4.1654e-37
1.08325e-35
6.0839e-39
2.66917e-37
6.4472e-41
4.7959e-39
3.18857e-43
5.7688e-41
2.06159e-43
7.09573e-13
-2.0209e-12
1.23884e-14
0
1.72226e-16
0
4.07419e-18
-4.15785e-17
1.08169e-19
-9.02014e-19
3.28227e-21
-1.87331e-20
1.0449e-22
-4.84829e-22
3.19757e-24
-1.25114e-23
8.89922e-26
-2.22882e-25
2.42846e-27
4.09534e-28
6.99915e-29
2.17142e-28
1.84192e-30
1.30616e-29
4.31016e-32
5.48967e-31
9.91189e-34
1.83782e-32
1.98928e-35
6.11454e-34
3.18604e-37
1.48897e-35
3.44199e-39
2.66996e-37
1.72485e-41
3.18243e-39
1.1282e-41
1.7057e-11
-5.14636e-11
3.3098e-13
0
2.33634e-15
0
5.59834e-17
-5.7573e-16
2.46801e-18
-2.02105e-17
8.35716e-20
-4.92747e-19
2.50047e-21
-1.47652e-20
7.88282e-23
-3.6057e-22
2.35087e-24
-6.87319e-24
6.93021e-26
-3.60858e-27
2.02204e-27
7.21578e-27
5.43602e-29
4.57274e-28
1.29237e-30
1.9746e-29
3.34964e-32
6.7462e-31
7.36751e-34
2.31788e-32
1.21207e-35
5.81816e-34
1.33981e-37
1.05499e-35
6.90544e-40
1.26577e-37
4.75161e-40
3.2859e-10
-9.67341e-10
9.1939e-12
0
1.71939e-14
-1.22946e-12
6.91075e-16
-4.23603e-15
1.04445e-17
-7.93772e-17
1.52741e-18
-7.14413e-18
5.2282e-20
-2.7818e-19
1.78479e-21
-7.61064e-21
5.69762e-23
-1.62368e-22
1.44547e-24
-6.01463e-25
4.37226e-26
1.98008e-25
1.21715e-27
1.14774e-26
2.94796e-29
5.1471e-28
8.5116e-31
1.80192e-29
2.00864e-32
5.68103e-31
3.40694e-34
1.64308e-32
3.86318e-36
2.99051e-34
2.20855e-38
3.67253e-36
1.56658e-38
3.92986e-09
-1.05246e-08
2.62362e-10
-1.38213e-09
3.0218e-13
-1.28437e-12
1.04837e-14
-7.7497e-14
3.65722e-16
-1.45894e-15
1.46598e-17
-4.6774e-17
8.25021e-19
-5.48607e-18
3.92913e-20
-2.11799e-19
1.66884e-21
-6.03877e-21
3.24466e-23
-5.13107e-23
8.63353e-25
4.8772e-24
2.64576e-26
2.63821e-25
6.44576e-28
1.25442e-26
1.78284e-29
4.5014e-28
5.07255e-31
1.31278e-29
8.82113e-33
4.53723e-31
1.04052e-34
8.30025e-33
6.5338e-37
1.01704e-34
5.09459e-37
1.31663e-08
-3.66951e-08
3.79268e-10
-2.32989e-09
1.01824e-12
-6.4441e-14
5.72749e-13
-7.06055e-12
5.57111e-15
0
2.24282e-16
-1.20935e-15
1.54811e-17
-5.43906e-17
9.27092e-19
0
4.59812e-20
0
1.46072e-21
0
3.03764e-23
1.97478e-22
1.13032e-24
1.08339e-23
2.62153e-26
5.54884e-25
7.23558e-28
2.02848e-26
2.43693e-29
6.11048e-28
4.35653e-31
2.2984e-29
5.24603e-33
4.22459e-31
3.16031e-35
5.18828e-33
2.89242e-35
4.92203e-06
-1.30462e-05
1.59008e-05
-4.95871e-05
2.71686e-05
-5.92121e-05
3.71352e-05
-5.52217e-05
4.64301e-05
-4.93283e-05
5.57972e-05
-4.57174e-05
6.5518e-05
-4.43901e-05
7.55596e-05
-4.42368e-05
8.57955e-05
-4.43135e-05
9.61187e-05
-4.4058e-05
0.00010647
-4.31735e-05
0.000116778
-4.14155e-05
0.000126916
-3.8506e-05
0.000136718
-3.41331e-05
0.00014599
-2.79135e-05
0.000154459
-1.93053e-05
0.000161589
-7.42834e-06
0.000166487
8.55277e-06
0.000168879
2.86064e-05
0.000168382
5.32356e-05
0.000165446
8.4225e-05
0.000168178
0.000117636
0.00017097
0.000197551
6.34008e-06
-1.93863e-05
1.73943e-05
-6.06414e-05
2.77607e-05
-6.95784e-05
3.68374e-05
-6.42984e-05
4.57495e-05
-5.82404e-05
5.52034e-05
-5.51713e-05
6.5274e-05
-5.44606e-05
7.57883e-05
-5.47511e-05
8.6598e-05
-5.51232e-05
9.76464e-05
-5.51065e-05
0.000108936
-5.44626e-05
0.000120381
-5.28613e-05
0.000131825
-4.99499e-05
0.000143281
-4.55889e-05
0.000154852
-3.94844e-05
0.000166579
-3.10325e-05
0.000178133
-1.89826e-05
0.000188058
-1.37065e-06
0.000196703
1.99614e-05
0.000203376
4.65624e-05
0.000212144
7.54565e-05
0.000227072
0.000102708
0.000137849
0.000260017
7.74072e-06
-2.7127e-05
1.86983e-05
-7.15989e-05
2.80669e-05
-7.8947e-05
3.63692e-05
-7.26007e-05
4.50834e-05
-6.69546e-05
5.47194e-05
-6.48073e-05
6.51092e-05
-6.48504e-05
7.59754e-05
-6.56173e-05
8.71701e-05
-6.63178e-05
9.86463e-05
-6.65826e-05
0.000110366
-6.61817e-05
0.000122147
-6.46426e-05
0.00013403
-6.18323e-05
0.000146815
-5.83733e-05
0.000160932
-5.36005e-05
0.000176637
-4.67382e-05
0.000192061
-3.44076e-05
0.000206935
-1.62407e-05
0.000220669
6.22742e-06
0.00023013
3.70997e-05
0.000241222
6.43648e-05
0.000254015
8.99153e-05
0.000114002
0.000277862
9.05315e-06
-3.61802e-05
1.96854e-05
-8.22311e-05
2.80279e-05
-8.72892e-05
3.57255e-05
-8.0298e-05
4.4355e-05
-7.55839e-05
5.40708e-05
-7.45228e-05
6.44421e-05
-7.52213e-05
7.5108e-05
-7.62824e-05
8.5908e-05
-7.71166e-05
9.67759e-05
-7.74483e-05
0.000107767
-7.71677e-05
0.000119044
-7.59121e-05
0.000131756
-7.45177e-05
0.000148157
-7.47681e-05
0.000165859
-7.1305e-05
0.000182954
-6.16416e-05
0.000192401
-3.88139e-05
0.000201391
-1.91491e-05
0.00021252
-2.36471e-06
0.000233883
1.6313e-05
0.000255854
4.23777e-05
0.00026964
7.61287e-05
9.76296e-05
0.000286006
1.03001e-05
-4.64802e-05
2.01486e-05
-9.2077e-05
2.73037e-05
-9.44406e-05
3.44272e-05
-8.74183e-05
4.27934e-05
-8.39469e-05
5.20724e-05
-8.37979e-05
6.1628e-05
-8.47699e-05
7.11594e-05
-8.58e-05
8.07075e-05
-8.66448e-05
9.05709e-05
-8.72662e-05
0.000101519
-8.80644e-05
0.000114937
-8.91815e-05
0.000129935
-8.66821e-05
0.00013055
-5.90525e-05
9.73824e-05
-1.99044e-05
5.8872e-05
-5.68378e-06
3.63032e-05
-1.46066e-06
2.6071e-05
-3.57241e-07
2.41624e-05
-7.21312e-08
3.9463e-05
7.67223e-07
7.88493e-05
1.42755e-06
0.000147474
3.46633e-06
1.18257e-05
0.000228076
1.15017e-05
-5.79793e-05
1.98502e-05
-0.000100387
2.53926e-05
-9.994e-05
3.17594e-05
-9.37456e-05
3.94943e-05
-9.164e-05
4.78655e-05
-9.2116e-05
5.63515e-05
-9.31572e-05
6.51702e-05
-9.4433e-05
7.51347e-05
-9.6319e-05
8.59523e-05
-9.28138e-05
9.03457e-05
-7.17581e-05
7.67418e-05
-3.38198e-05
4.35184e-05
-8.02895e-06
2.68946e-05
-1.89648e-06
7.45913e-06
-3.90958e-07
1.88039e-06
-8.88741e-08
4.42802e-07
-2.01421e-08
1.02904e-07
-5.67952e-09
7.52847e-08
-9.46491e-09
8.29446e-07
0
2.37279e-06
1.56172e-07
5.23133e-06
5.2196e-07
1.07552e-06
1.5209e-05
1.3256e-05
-7.11771e-05
1.95014e-05
-0.000106199
2.27133e-05
-0.000102693
2.84083e-05
-9.89905e-05
3.60143e-05
-9.87528e-05
4.43069e-05
-9.40173e-05
5.12403e-05
-8.03397e-05
5.46621e-05
-6.12601e-05
5.03351e-05
-3.62767e-05
3.25743e-05
-6.67637e-06
1.53367e-05
-1.15588e-06
1.03588e-05
-1.61494e-07
2.36286e-06
-2.43628e-08
4.9214e-07
-2.57693e-08
1.20917e-07
-2.12324e-08
3.7987e-08
-6.91257e-09
2.04707e-08
-3.35935e-09
2.23733e-08
-4.82155e-09
1.07924e-07
-4.88564e-08
2.27645e-07
-7.51987e-08
4.28911e-07
7.75371e-09
8.22179e-07
5.72982e-08
1.05815e-07
1.74629e-06
1.62268e-05
-6.69758e-05
1.64151e-05
-4.69901e-05
1.73674e-05
-4.12194e-05
2.06686e-05
-3.70457e-05
2.2736e-05
-2.82263e-05
2.06378e-05
-2.19145e-06
1.54506e-05
-1.8915e-07
8.7057e-06
-1.9096e-08
8.04654e-06
-2.23492e-09
1.36973e-06
-3.02868e-10
1.91717e-07
-8.13541e-10
3.71377e-08
-6.16531e-09
2.51163e-08
-1.42593e-08
2.16458e-08
-2.53926e-08
1.96873e-08
-2.02159e-08
1.74264e-08
-5.5846e-09
1.52558e-08
-2.08919e-09
1.28042e-07
-5.30453e-08
4.91441e-07
-1.42134e-07
6.0783e-07
-1.50692e-07
3.66725e-07
-2.85846e-08
1.63686e-07
1.98253e-08
1.26336e-08
2.33308e-07
6.78412e-06
2.32236e-24
2.05432e-06
-1.41919e-23
2.44511e-06
-1.61861e-21
2.03687e-06
-1.59807e-19
2.40226e-06
-1.05838e-17
2.1081e-07
-1.69998e-16
2.16606e-08
-1.76839e-15
2.56509e-09
-3.82711e-16
3.30289e-10
-1.22213e-13
4.20748e-11
-1.4393e-13
2.21642e-10
-1.89759e-10
3.44426e-09
-8.72038e-09
1.84433e-08
-3.59115e-08
3.67595e-08
-8.65813e-08
2.38461e-08
-1.49099e-08
2.08358e-08
-3.54177e-09
2.58109e-08
-7.84586e-09
4.02306e-07
-6.7668e-08
4.74958e-07
-1.73889e-07
5.09797e-07
-1.44635e-07
2.75894e-07
-3.38858e-08
2.61655e-08
1.08654e-08
1.43836e-09
3.32594e-08
-2.69144e-25
8.45481e-24
4.1596e-25
-1.4877e-23
7.26582e-23
-1.6928e-21
9.0548e-21
-1.69001e-19
6.7447e-19
-1.12696e-17
1.29769e-17
-1.83451e-16
1.08723e-16
-1.88135e-15
2.04194e-16
-7.24158e-16
1.36725e-14
-1.353e-13
2.19991e-13
-3.79142e-13
6.42369e-10
-8.195e-10
3.96045e-08
-4.97459e-08
8.43864e-08
-1.13656e-07
1.10767e-07
-9.68774e-08
3.75222e-08
-2.0664e-08
3.39478e-08
-2.61495e-09
2.8403e-07
-1.36046e-08
3.91379e-07
-1.138e-07
4.16735e-07
-1.51488e-07
2.9081e-07
-7.09219e-08
0
-3.63925e-09
1.90741e-09
2.91521e-11
0
3.19088e-09
-1.38102e-25
9.29649e-24
3.38083e-24
-4.25826e-23
5.90496e-22
-4.60424e-21
7.01048e-20
-3.5039e-19
5.11051e-18
-2.29127e-17
1.07393e-16
-4.93767e-16
9.55903e-16
-6.17629e-15
2.26182e-15
-9.10417e-16
1.91699e-13
-3.23665e-13
1.86504e-12
-2.03849e-12
6.9689e-09
-7.56424e-09
6.19484e-08
-1.06046e-07
7.93616e-08
-1.15816e-07
7.91515e-08
-8.03192e-08
4.16989e-08
-5.37106e-09
6.5022e-08
-3.36931e-08
2.67674e-07
-8.12139e-08
3.24361e-07
-1.26762e-07
2.88664e-07
-6.11716e-08
3.98661e-09
-1.07791e-08
9.67591e-11
-9.41136e-11
2.33031e-11
5.68754e-13
4.29637e-13
2.17962e-10
-3.3844e-25
6.21469e-24
2.27142e-23
-2.21613e-22
4.56345e-21
-2.95277e-20
5.86526e-19
-3.01955e-18
4.25467e-17
-1.89877e-16
6.73135e-16
-2.49657e-15
2.61556e-15
-9.64546e-15
4.36002e-15
-2.69483e-15
9.94177e-13
-1.36357e-12
9.27388e-12
-1.03009e-11
2.33835e-08
-9.56457e-09
3.84003e-08
-7.45973e-08
3.87089e-08
-9.86238e-08
4.75587e-08
-6.8281e-08
6.16493e-08
-4.63032e-08
1.32762e-07
-1.12086e-07
2.21417e-07
-1.07897e-07
1.87479e-07
-4.4677e-08
1.05662e-08
-8.45496e-09
7.59231e-11
-3.26247e-10
3.17661e-12
-1.60711e-11
5.92269e-12
-1.95211e-12
-1.76623e-12
8.86161e-12
-3.94449e-25
1.95109e-24
5.24694e-23
-3.99864e-22
1.12052e-20
-6.30561e-20
1.91472e-18
-9.61145e-18
1.28252e-16
-5.73475e-16
7.75049e-16
-4.67793e-15
2.58338e-15
-9.74129e-15
1.59647e-14
-1.537e-14
2.47119e-12
-7.75418e-12
3.61611e-11
-4.36846e-11
3.57026e-09
-2.95702e-11
5.27731e-09
-1.07981e-09
8.15554e-09
-2.24285e-08
4.89597e-09
-9.93206e-08
1.56435e-08
-1.2306e-07
7.32248e-08
-9.19005e-08
5.22459e-08
-2.54846e-16
8.83141e-09
-3.0094e-15
3.56413e-10
-1.35508e-14
1.85817e-11
-2.18701e-14
2.55302e-12
-9.12938e-14
6.29632e-13
-1.02635e-14
-2.87237e-12
3.40443e-12
-1.1609e-25
-1.10453e-24
5.55255e-23
-4.36386e-22
1.29924e-20
-7.62933e-20
2.98093e-18
-1.63962e-17
1.78893e-16
-9.26195e-16
9.90676e-16
-5.70191e-15
2.15624e-15
-9.24796e-15
6.12804e-14
-7.308e-14
3.09714e-13
-8.23355e-12
-1.00417e-13
-3.53842e-11
-1.43294e-11
-1.39009e-11
-7.90536e-10
-2.95399e-10
-1.21373e-08
-6.26104e-09
-5.38327e-08
-4.97981e-08
-3.90493e-08
-6.08867e-09
-6.54931e-17
-4.30919e-16
-4.33026e-17
-4.91618e-16
7.59752e-17
-3.33365e-15
4.41792e-16
-1.41822e-14
1.89085e-15
-2.09856e-14
1.96362e-14
-9.19494e-14
8.30879e-14
-5.41443e-14
-2.09397e-12
6.55345e-12
5.04386e-26
-2.14754e-24
4.27297e-23
-3.67666e-22
1.04952e-20
-6.99156e-20
2.87519e-18
-1.83322e-17
1.54528e-16
-9.77957e-16
6.15262e-16
-5.56986e-15
1.52961e-15
-7.52937e-15
3.18609e-14
-4.51307e-14
-1.18379e-12
-4.64918e-13
-5.65867e-13
-1.76864e-11
-1.25783e-11
-3.50214e-12
-3.0363e-10
-4.43198e-12
-4.79828e-09
-6.61942e-13
-2.53687e-09
-1.01975e-13
-4.7885e-17
-6.68351e-14
-1.90807e-16
-1.59105e-16
-1.61625e-16
-1.16797e-15
1.05323e-15
-4.97068e-15
7.23624e-15
-1.2421e-14
1.48145e-14
-2.09717e-14
9.42306e-14
-7.31909e-14
4.52598e-13
-3.84207e-13
-1.40365e-12
5.35989e-12
6.83498e-26
-1.75488e-24
1.91148e-23
-1.12277e-22
5.32562e-21
-2.46616e-20
2.05013e-18
-1.62968e-17
1.01016e-16
-7.99606e-16
3.00858e-16
-3.46355e-15
2.22225e-16
-4.85352e-15
-2.70135e-16
-4.83351e-15
-2.35679e-13
-1.85329e-13
-4.85577e-13
-4.19199e-12
-1.86136e-13
-7.96117e-12
-3.23727e-14
-4.56015e-12
-5.9103e-15
-6.83806e-13
-2.9358e-15
-1.04025e-13
-2.87813e-17
-6.96133e-14
-7.24489e-17
-2.66492e-17
-6.82194e-17
-1.40417e-15
1.42131e-15
-5.01001e-15
6.34438e-15
-9.25573e-15
1.69357e-14
-1.79779e-14
1.21572e-13
-6.62232e-14
7.0551e-13
-2.0956e-13
-2.01606e-12
1.72763e-12
2.5689e-26
-3.72582e-25
3.05925e-24
-8.56398e-24
9.2521e-22
-1.55783e-21
9.07427e-19
-6.1996e-18
3.63969e-17
-2.54666e-16
9.2255e-17
-1.06276e-15
5.98356e-17
-2.09464e-15
0
-2.5996e-15
-2.79301e-14
-2.24777e-13
-9.41043e-13
-4.74902e-12
-7.64729e-13
-7.04575e-12
-4.89068e-13
-5.96099e-12
-4.79003e-14
-8.91972e-13
-1.65211e-14
-7.96816e-14
-6.97635e-17
-6.34854e-14
-6.10294e-17
-8.22489e-18
1.30441e-17
-5.99407e-16
7.59494e-16
-2.47596e-15
2.74639e-15
-5.93213e-15
9.78565e-15
-1.3341e-14
6.57559e-14
-5.47763e-14
4.7995e-13
-2.76922e-13
-1.98472e-12
3.09776e-12
2.58363e-27
-3.9147e-26
1.3054e-25
-1.23741e-25
3.45442e-23
-1.87095e-22
1.53148e-19
-8.6599e-19
4.98615e-18
-3.58705e-17
1.32398e-17
-1.78055e-16
1.10685e-17
-9.59104e-16
0
-2.8799e-15
-6.52619e-14
-7.06997e-15
-4.46357e-13
-1.25145e-12
-8.47411e-13
-5.58345e-12
-4.62894e-13
-4.33079e-12
-5.47582e-14
-2.99345e-13
-1.32573e-14
-6.49017e-17
-2.80447e-17
-1.53909e-16
-2.08848e-17
-7.09948e-18
6.81816e-18
-2.30235e-16
2.8037e-16
-1.03329e-15
1.40333e-15
-3.42127e-15
5.56091e-15
-9.83741e-15
4.4005e-14
-4.31682e-14
3.78315e-13
-2.9414e-13
-1.98122e-12
2.56468e-12
1.40308e-28
-4.61966e-27
1.49973e-27
-9.64296e-26
3.38867e-24
-3.2747e-22
7.90975e-21
-8.85739e-20
1.80878e-19
-1.98761e-18
1.04058e-20
-1.59101e-17
-1.49784e-17
-5.44927e-16
-4.22429e-17
-2.8806e-15
-1.97572e-15
-3.64913e-15
-1.6662e-13
-1.06353e-15
-2.51773e-13
-4.66159e-16
-6.54087e-14
-1.53152e-16
-7.22435e-17
-9.7638e-17
-3.27941e-18
-1.18209e-16
-4.93469e-19
-1.48408e-16
-1.81624e-18
-2.12462e-18
8.09671e-19
-4.12992e-17
8.12986e-17
-3.46801e-16
5.86972e-16
-1.77378e-15
3.02624e-15
-7.30524e-15
2.58526e-14
-3.41486e-14
2.86253e-13
-2.64636e-13
-1.8903e-12
2.56536e-12
5.8447e-30
-1.64387e-29
3.62486e-28
-9.96676e-26
6.6506e-25
-3.23739e-22
-2.46606e-22
-1.11089e-20
-6.80198e-21
-2.78004e-20
-6.94694e-19
-4.44952e-19
-5.09951e-17
-1.4276e-16
-8.14764e-17
-1.4942e-15
-8.51909e-18
-2.79727e-15
-7.11946e-18
-1.06511e-15
-5.48199e-18
-4.41841e-16
-5.66297e-18
-1.2236e-16
-1.14559e-17
-6.32114e-17
-1.45322e-17
-8.58824e-17
-1.19129e-19
-9.07776e-17
-2.0663e-19
-7.91194e-19
-7.62827e-19
-1.01793e-17
1.43965e-17
-1.3119e-16
1.96833e-16
-1.01404e-15
1.48097e-15
-5.51195e-15
1.37089e-14
-2.78837e-14
2.29834e-13
-2.45953e-13
-2.08016e-12
2.70434e-12
-5.17712e-30
-3.87869e-30
-3.81038e-26
-9.43923e-30
-1.41238e-23
-8.51189e-28
-6.20128e-23
-3.18928e-25
-2.22408e-22
-1.0859e-22
-1.61987e-19
-3.06516e-20
-1.21114e-17
-1.04206e-17
-8.91744e-17
-2.13462e-16
-7.31177e-17
-1.01613e-15
-4.01299e-17
-1.36395e-15
-1.32115e-17
-7.25004e-16
-5.14243e-18
-1.83147e-16
-5.3362e-18
-3.58541e-17
-8.50933e-18
-4.33391e-18
-4.85623e-20
-8.1123e-19
-6.29021e-20
-4.26649e-19
-5.96379e-19
-3.33241e-18
-1.02738e-18
-5.84929e-17
4.10167e-17
-6.09276e-16
5.29661e-16
-4.05432e-15
6.09697e-15
-2.18819e-14
1.37789e-13
-2.10288e-13
-2.06433e-12
2.04942e-12
-7.07925e-33
-2.73597e-31
-6.63743e-32
-4.58844e-30
-1.38001e-29
-4.50059e-28
-8.06488e-27
-1.69115e-25
-3.79658e-23
-4.98892e-23
-9.37702e-21
-1.47547e-20
-1.08291e-18
-2.21929e-18
-1.51273e-17
-3.02375e-17
-7.94767e-17
-1.21992e-16
-4.98124e-17
-1.9105e-16
-2.45018e-17
-1.83756e-16
-4.58512e-18
-1.01295e-16
-6.02191e-19
-2.39538e-17
-7.45573e-20
-3.28281e-18
-2.98379e-20
-3.9265e-19
-3.45533e-20
-2.28051e-19
-3.82774e-19
-1.50049e-18
-4.70585e-18
-2.87468e-17
-2.47639e-17
-3.69537e-16
-2.49251e-17
-2.86402e-15
6.53164e-16
-1.61408e-14
2.89875e-14
-1.54191e-13
-1.65836e-12
5.74679e-13
-1.06533e-33
-1.23151e-33
-4.29521e-32
-5.94053e-31
-1.21404e-29
-3.13275e-28
-7.95748e-26
-4.65908e-26
-3.63481e-23
-6.94552e-24
-3.73921e-21
-8.73983e-22
-2.35288e-19
-2.19598e-19
-1.9617e-18
-6.79159e-18
-1.27612e-17
-3.24875e-17
-1.16279e-17
-6.36154e-17
-8.51714e-18
-8.02222e-17
-3.08498e-18
-4.75371e-17
-5.03295e-19
-1.42313e-17
-4.48952e-20
-1.49969e-18
-1.79099e-20
-2.00082e-19
-2.19897e-20
-1.05132e-19
-2.46971e-19
-7.05197e-19
-4.64618e-18
-1.34311e-17
-4.88515e-17
-2.04413e-16
-2.35693e-16
-1.85186e-15
-9.84076e-16
-1.13902e-14
0
-1.07102e-13
-1.20538e-12
0
-7.73158e-36
-1.62497e-35
-2.34821e-31
-7.34974e-33
-1.02142e-29
-1.70095e-30
-1.45837e-27
-1.99407e-28
-2.43294e-25
-3.75093e-26
-7.09809e-22
-5.85512e-24
-4.45568e-20
-8.60617e-22
-6.87837e-19
-1.54388e-19
-2.08197e-18
-2.1871e-18
-4.40323e-18
-6.97464e-18
-3.9649e-18
-9.01867e-18
-1.70272e-18
-4.8562e-18
-2.00747e-19
-3.02469e-18
-2.50222e-20
-4.43491e-19
-9.30332e-21
-8.12393e-20
-1.23514e-20
-4.24008e-20
-1.42626e-19
-3.16219e-19
-3.20013e-18
-5.98439e-18
-4.54756e-17
-1.01238e-16
-2.99939e-16
-1.10481e-15
-1.65802e-15
-8.38448e-15
0
-8.51438e-14
-1.00847e-12
0
-1.95957e-37
-2.52893e-37
-8.13905e-34
-2.13211e-35
-3.08772e-32
-3.92322e-33
-1.07185e-28
-9.58658e-31
-2.85679e-26
-1.64261e-28
-5.81077e-24
-2.59129e-26
-6.21496e-22
-2.25454e-24
-2.68728e-20
-3.91841e-22
-2.38403e-19
-7.34278e-21
-4.37689e-19
-2.41975e-20
-3.31929e-19
-3.40668e-20
-2.55863e-19
-3.40447e-20
-5.56321e-20
-2.04631e-20
-9.86685e-21
-1.45706e-20
-4.20731e-21
-1.20526e-20
-6.02504e-21
-1.43804e-20
-7.70085e-20
-1.34752e-19
-1.8052e-18
-2.74814e-18
-3.11407e-17
-5.06306e-17
-2.94763e-16
-6.94802e-16
-1.89407e-15
-6.93715e-15
0
-7.49274e-14
-9.1957e-13
0
-3.37691e-39
-5.15243e-40
-3.11607e-37
-1.22797e-37
-2.23632e-33
-5.86056e-35
-5.11312e-31
-7.51588e-33
-1.20665e-28
-9.32553e-31
-5.02136e-27
-1.92835e-28
-1.87421e-24
-1.53761e-26
-9.26321e-23
-1.9256e-24
-7.98404e-22
-4.8867e-23
-1.72891e-21
-2.22329e-22
-1.97041e-21
-4.56667e-22
-1.59407e-21
-6.44576e-22
-1.18168e-21
-7.86543e-22
-1.02555e-21
-8.77415e-22
-1.15199e-21
-9.14434e-22
-2.4934e-21
-3.56361e-21
-4.11215e-20
-6.71554e-20
-9.94291e-19
-1.45657e-18
-2.06162e-17
-2.8437e-17
-2.7317e-16
-4.61387e-16
-1.99933e-15
-5.75892e-15
-5.20178e-16
-6.80121e-14
-8.14018e-13
0
-3.40863e-42
-1.26439e-43
-1.35334e-37
-2.67578e-41
-1.40869e-36
-1.0043e-38
-5.80983e-34
-1.73093e-36
-1.31076e-30
-5.65343e-34
-1.84246e-28
-7.02961e-32
-7.1741e-27
-7.5591e-30
-4.88721e-25
-4.09074e-28
-5.85319e-24
-5.3375e-26
-1.94293e-23
-1.48586e-24
-3.54006e-23
-6.80752e-24
-5.21297e-23
-1.23615e-23
-6.78605e-23
-1.40539e-23
-7.77319e-23
-1.25284e-23
-1.11047e-22
-7.55231e-23
-1.00896e-21
-1.62484e-21
-2.5213e-20
-4.00742e-20
-6.20463e-19
-8.72079e-19
-1.37648e-17
-1.69774e-17
-2.3862e-16
-2.90986e-16
-2.04587e-15
-4.24228e-15
-6.96167e-15
-5.43008e-14
-6.33011e-13
-9.74068e-14
-9.70523e-46
-3.94914e-46
-2.10034e-41
-6.77883e-44
-1.98563e-39
-1.42189e-41
-2.58024e-36
-4.99219e-39
-5.60612e-34
-9.93878e-37
-6.96133e-32
-1.24871e-34
-7.42984e-30
-1.30969e-32
-3.97238e-28
-6.22059e-31
-1.80669e-26
-5.68825e-29
-2.39608e-25
-4.91411e-27
-7.43004e-25
-3.33912e-26
-1.03172e-24
-7.25307e-26
-1.05746e-24
-1.02034e-25
-1.55681e-24
-1.10207e-24
-3.20831e-23
-2.95419e-23
-6.78936e-22
-8.25864e-22
-1.69875e-20
-2.03123e-20
-4.13684e-19
-4.32814e-19
-9.06181e-18
-8.15956e-18
-1.65874e-16
-1.35906e-16
-2.27633e-15
-1.96845e-15
-3.0856e-14
-2.37547e-14
-2.69255e-13
-3.74559e-13
-7.11192e-48
-3.52431e-50
-1.36393e-45
-1.79869e-47
-1.0728e-41
-7.05528e-45
-5.60925e-39
-2.04497e-42
-9.85231e-37
-3.42294e-40
-1.22926e-34
-4.44941e-38
-1.27129e-32
-4.69276e-36
-6.34101e-31
-2.317e-34
-4.05449e-29
-1.25907e-32
-1.03471e-27
-1.24351e-30
-4.1285e-27
-2.87256e-29
-5.64864e-27
-2.34662e-28
-1.32105e-26
-7.10287e-27
-7.87782e-25
-2.41442e-25
-2.22918e-23
-7.7742e-24
-5.49835e-22
-2.06773e-22
-1.32448e-20
-4.81649e-21
-3.04534e-19
-1.00302e-19
-6.23545e-18
-1.83721e-18
-1.10118e-16
-2.93652e-17
-1.61141e-15
-4.08103e-16
-2.35507e-14
-5.60031e-15
-6.54111e-14
-2.70718e-13
-7.76814e-51
-2.66682e-52
-1.77509e-47
-1.33521e-49
-4.98292e-46
-5.85259e-47
-2.00598e-42
-1.99942e-44
-3.34961e-40
-3.2894e-42
-4.37705e-38
-4.21377e-40
-4.64988e-36
-4.37696e-38
-1.09884e-34
-3.60586e-36
-1.23985e-32
-1.44763e-34
-5.18777e-31
-8.69401e-33
-2.56813e-30
-4.67054e-31
-1.11068e-28
-2.13468e-29
-6.25654e-27
-8.68889e-28
-2.20838e-25
-3.18495e-26
-7.49232e-24
-1.22988e-24
-2.30287e-22
-3.62686e-23
-5.45282e-21
-8.0051e-22
-1.18293e-19
-1.68123e-20
-2.19901e-18
-3.03689e-19
-3.60188e-17
-4.76149e-18
-5.42037e-16
-6.63259e-17
-6.67702e-15
-7.80358e-16
-9.32863e-15
-7.88303e-14
-9.61678e-53
-1.76553e-53
-1.22154e-49
-9.6065e-51
-7.52708e-47
-6.05345e-48
-1.83253e-44
-1.49279e-45
-3.01575e-42
-2.49792e-43
-3.86719e-40
-3.25522e-41
-4.02383e-38
-3.43804e-39
-3.31712e-36
-2.89976e-37
-1.16028e-34
-1.22456e-35
-8.1362e-33
-6.92544e-34
-4.39924e-31
-3.80351e-32
-2.02898e-29
-1.81982e-30
-8.35563e-28
-7.5957e-29
-3.70522e-26
-3.89104e-27
-1.34756e-24
-1.24773e-25
-3.77009e-23
-3.35296e-24
-8.97674e-22
-7.91478e-23
-1.88672e-20
-1.63238e-21
-3.47285e-19
-2.935e-20
-5.58317e-18
-4.59299e-19
-7.81844e-17
-6.27867e-18
-9.40542e-16
-6.56077e-17
-7.92544e-16
-1.27809e-14
-6.90629e-54
-5.64259e-55
-1.82077e-50
-7.82176e-52
-5.88665e-48
-2.60636e-49
-1.42744e-45
-6.50957e-47
-2.3891e-43
-1.12106e-44
-3.11719e-41
-1.50307e-42
-3.29883e-39
-1.63289e-40
-2.79215e-37
-1.42159e-38
-1.37683e-35
-1.0673e-36
-6.73569e-34
-4.05932e-35
-3.72223e-32
-2.154e-33
-2.53448e-30
-1.44226e-31
-9.90116e-29
-6.59525e-30
-4.07792e-27
-2.39851e-28
-1.30481e-25
-7.63772e-27
-3.58331e-24
-2.11699e-25
-8.62508e-23
-5.11793e-24
-1.81256e-21
-1.0768e-22
-3.32738e-20
-1.97325e-21
-5.35184e-19
-3.1496e-20
-7.55719e-18
-4.41166e-19
-9.66413e-17
-3.75461e-18
-5.45735e-17
-1.25059e-15
-5.05377e-55
-9.92116e-57
-7.6662e-52
-1.39218e-53
-2.73731e-49
-5.22244e-51
-6.40266e-47
-1.28292e-48
-1.10175e-44
-2.31525e-46
-1.48384e-42
-3.26154e-44
-1.6221e-40
-3.72042e-42
-1.44598e-38
-3.51469e-40
-1.08401e-36
-2.72918e-38
-5.44383e-35
-1.84495e-36
-2.9522e-33
-1.07563e-34
-1.44563e-31
-5.4169e-33
-6.83298e-30
-2.3675e-31
-2.52914e-28
-9.03911e-30
-8.17669e-27
-3.01449e-28
-2.30592e-25
-8.72637e-27
-5.67354e-24
-2.1941e-25
-1.21795e-22
-4.80827e-24
-2.27009e-21
-9.21196e-23
-3.68851e-20
-1.53586e-21
-5.24317e-19
-2.24192e-20
-5.61159e-18
-1.9328e-19
-2.93308e-18
-1.04741e-16
-1.13871e-56
-1.41844e-58
-1.37684e-53
-1.52244e-55
-5.16805e-51
-6.15298e-53
-1.27148e-48
-1.62534e-50
-2.3003e-46
-3.1506e-48
-3.25133e-44
-4.76296e-46
-3.72419e-42
-5.8272e-44
-3.53709e-40
-5.90622e-42
-2.78778e-38
-4.99308e-40
-1.89036e-36
-3.6006e-38
-1.11153e-34
-2.24851e-36
-5.65842e-33
-1.21385e-34
-2.50584e-31
-5.69115e-33
-9.70456e-30
-2.32533e-31
-3.2587e-28
-8.25235e-30
-9.51789e-27
-2.54442e-28
-2.42373e-25
-6.83202e-27
-5.38839e-24
-1.59838e-25
-1.04953e-22
-3.26858e-24
-1.78339e-21
-5.81668e-23
-2.65203e-20
-9.05113e-22
-2.85838e-19
-8.0425e-21
-1.30606e-19
-6.21724e-18
-1.58715e-58
-7.37217e-61
-1.51673e-55
-7.55922e-58
-6.13969e-53
-3.40158e-55
-1.62583e-50
-9.94853e-53
-3.16177e-48
-2.12982e-50
-4.80227e-46
-3.55018e-48
-5.90807e-44
-4.7821e-46
-6.01965e-42
-5.3358e-44
-5.15827e-40
-5.0105e-42
-3.74051e-38
-3.97622e-40
-2.34562e-36
-2.71863e-38
-1.27524e-34
-1.60941e-36
-6.03468e-33
-8.28349e-35
-2.47583e-31
-3.68714e-33
-8.85464e-30
-1.42888e-31
-2.75999e-28
-4.82065e-30
-7.50257e-27
-1.41603e-28
-1.78023e-25
-3.62388e-27
-3.7008e-24
-8.10727e-26
-6.71531e-23
-1.57787e-24
-1.06626e-21
-2.67945e-23
-1.2155e-20
-2.57193e-22
-4.40662e-21
-2.98697e-19
-7.54979e-61
-1.30906e-63
-7.55649e-58
-1.55598e-60
-3.40932e-55
-8.14034e-58
-9.9998e-53
-2.73828e-55
-2.14708e-50
-6.70993e-53
-3.59078e-48
-1.2761e-50
-4.85456e-46
-1.9564e-48
-5.44043e-44
-2.48034e-46
-5.13296e-42
-2.64143e-44
-4.11515e-40
-2.39006e-42
-2.83488e-38
-1.85286e-40
-1.68643e-36
-1.23767e-38
-8.70737e-35
-7.15406e-37
-3.90336e-33
-3.58821e-35
-1.52673e-31
-1.56875e-33
-5.20583e-30
-5.96919e-32
-1.54882e-28
-1.97755e-30
-4.0197e-27
-5.70301e-29
-9.09965e-26
-1.4308e-27
-1.79622e-24
-3.11963e-26
-3.09614e-23
-5.91787e-25
-3.84992e-22
-6.42242e-24
-1.17759e-22
-1.07402e-20
-1.32562e-63
-6.89375e-67
-1.55816e-60
-1.04977e-63
-8.1675e-58
-6.72551e-61
-2.7539e-55
-2.71984e-58
-6.76643e-53
-7.95386e-56
-1.29074e-50
-1.79785e-53
-1.98552e-48
-3.26691e-51
-2.52686e-46
-4.89837e-49
-2.70271e-44
-6.15769e-47
-2.4572e-42
-6.56399e-45
-1.91548e-40
-5.98421e-43
-1.28793e-38
-4.69421e-41
-7.49932e-37
-3.1825e-39
-3.79219e-35
-1.87051e-37
-1.66843e-33
-9.55086e-36
-6.39396e-32
-4.24191e-34
-2.13566e-30
-1.63963e-32
-6.21776e-29
-5.51439e-31
-1.57757e-27
-1.61234e-29
-3.48654e-26
-4.09257e-28
-6.71478e-25
-9.012e-27
-9.36584e-24
-1.14334e-25
-2.32518e-24
-3.02803e-22
-6.9213e-67
-7.10562e-71
-1.05126e-63
-1.56363e-67
-6.74809e-61