/*--------------------------------*- C++ -*----------------------------------*\
  =========                 |
  \\      /  F ield         | OpenFOAM: The Open Source CFD Toolbox
   \\    /   O peration     | Website:  https://openfoam.org
    \\  /    A nd           | Version:  13
     \\/     M anipulation  |
\*---------------------------------------------------------------------------*/
FoamFile
{
    format      ascii;
    class       volScalarField;
    location    "0.25";
    object      p;
}
// * * * * * * * * * * * * * * * * * * * * * * * * * * * * * * * * * * * * * //

dimensions      [1 -1 -2 0 0 0 0];

internalField   nonuniform List<scalar> 
2268
(
1603.01
1609.24
1611.31
1608.21
1600.05
1589.08
1577.19
1565.22
1553.6
1542.85
1533.67
1527.12
1524.68
1528.31
1540.61
1565.08
1604.44
1659.08
1723.77
1781.76
1803.02
1786.95
1833.21
1543.31
1549.44
1551.47
1548.31
1540.13
1529.18
1517.3
1505.31
1493.62
1482.74
1473.39
1466.62
1463.91
1467.14
1478.55
1500.17
1535.51
1586.14
1649.89
1711.8
1739.44
1712.31
1777.1
1482.76
1488.7
1490.66
1487.37
1479.15
1468.25
1456.39
1444.34
1432.49
1421.36
1411.66
1404.47
1401.21
1403.73
1414.16
1434.89
1467.5
1512.84
1568.33
1625.28
1666.66
1678.43
1740.51
1421.4
1427.07
1428.91
1425.43
1417.15
1406.3
1394.47
1382.32
1370.24
1358.72
1348.5
1340.64
1336.58
1338.08
1347.23
1366.11
1396.12
1437.49
1487.18
1538.75
1588.67
1632.86
1719.31
1359.28
1364.63
1366.27
1362.54
1354.18
1343.39
1331.57
1319.26
1306.84
1294.79
1283.86
1275.12
1269.98
1270.16
1277.64
1294.36
1321.57
1359.35
1405.4
1454.13
1506.27
1563.38
1661.21
1296.44
1301.45
1302.81
1298.75
1290.3
1279.56
1267.7
1255.17
1242.29
1229.55
1217.72
1207.85
1201.33
1199.86
1205.32
1219.55
1243.76
1277.99
1320.59
1366.67
1416.05
1470.07
1557.64
1232.95
1237.61
1238.55
1234.1
1225.56
1214.86
1202.93
1190.07
1176.6
1163.02
1150.08
1138.84
1130.66
1127.17
1130.22
1141.55
1162.39
1192.84
1231.41
1273.47
1315.42
1353.66
1392.72
1168.89
1173.16
1173.48
1168.55
1159.96
1149.32
1137.27
1124.01
1109.83
1095.26
1081.04
1068.22
1058.09
1052.27
1052.51
1060.51
1077.45
1103.69
1137.53
1173.67
1203.11
1218.27
1148.67
21.7929
21.7385
21.6579
21.5662
21.4646
21.3592
21.2574
21.1638
21.0803
21.0073
20.9441
20.8898
20.8434
20.8043
20.7721
20.7464
20.7273
20.7145
20.7082
21.7417
21.6832
21.601
21.5091
21.4063
21.2997
21.1971
21.1031
21.0195
20.9466
20.8835
20.8294
20.7832
20.7441
20.7119
20.6863
20.6671
20.6544
20.648
21.6995
21.6315
21.5457
21.454
21.3489
21.2395
21.1353
21.0405
20.9568
20.8841
20.8214
20.7676
20.7215
20.6826
20.6504
20.6247
20.6055
20.5927
20.5863
21.6663
21.5818
21.4912
21.4011
21.2921
21.1784
21.0717
20.9759
20.8921
20.8198
20.7576
20.7042
20.6585
20.6197
20.5876
20.5618
20.5425
20.5296
20.5231
21.6428
21.5308
21.4367
21.3516
21.2361
21.1162
21.0062
20.9091
20.8253
20.7536
20.6921
20.6394
20.5941
20.5556
20.5234
20.4975
20.478
20.465
20.4584
21.6439
21.4735
21.3804
21.3072
21.1809
21.0523
20.9384
20.8399
20.7563
20.6854
20.6251
20.5732
20.5284
20.4901
20.4579
20.4318
20.4121
20.3988
20.3922
21.6672
21.4012
21.3204
21.2715
21.1259
20.9861
20.8678
20.7681
20.685
20.6154
20.5564
20.5056
20.4614
20.4233
20.391
20.3647
20.3446
20.3311
20.3244
21.6397
21.3005
21.2578
21.2504
21.0696
20.9164
20.794
20.6932
20.6112
20.5435
20.4862
20.4366
20.3932
20.3552
20.3228
20.2961
20.2756
20.2618
20.2549
1067.87
1071.43
1070.68
1065.01
1056.24
1045.57
1033.17
1019.07
1003.56
987.154
970.607
954.885
941.203
931.088
926.204
928.284
938.53
956.971
982.67
1007.25
1009.35
955.137
597.528
928.35
930.877
928.587
921.786
912.459
901.161
887.608
871.658
853.52
833.625
812.616
791.293
770.771
752.686
738.534
730.197
728.581
731.62
743.618
747.983
726.618
652.223
474.832
787.417
788.765
784.559
776.437
766.269
753.84
738.474
719.917
698.276
673.82
647.098
618.768
590
562.362
536.355
514.049
499.135
498.493
498.253
499.031
498.851
469.751
408.025
645.481
645.278
638.905
629.356
618.041
603.895
586.054
564.257
538.515
508.941
476.06
440.009
401.099
358.788
310.143
261.492
210.602
166.996
145.006
154.621
197.915
233.037
231.644
503.149
500.464
491.932
481.17
468.558
452.194
431.6
406.562
376.793
341.912
302.113
255.188
200.748
139.971
74.0908
37.9782
20.7539
13.2646
9.41109
11.0552
15.5308
25.6197
42.0542
360.92
355.868
345.683
333.848
319.756
300.412
276.746
248.226
213.877
170.282
126.12
76.027
38.13
13.1395
4.08859
3.0274
3.22676
3.40995
3.64069
3.70128
3.1579
2.18045
1.56431
220.01
213.055
200.437
187.307
172.057
148.672
122.916
96.1292
67.9846
35.1412
15.8383
2.93958
2.27225
2.25043
2.42492
2.41744
2.55236
2.75687
2.939
2.7248
2.1015
1.22774
0.324885
92.9101
78.8105
67.1223
59.0221
49.8862
32.6194
21.4305
11.6424
3.53922
2.09626
1.67495
1.73697
1.67726
1.65162
1.71156
1.83823
1.97847
2.1736
2.13629
1.56276
0.673323
-0.0932282
-0.558181
20.4302
7.00631
5.84498
4.39838
2.3622
1.90269
1.70841
1.63738
1.67264
1.63525
1.50774
1.39641
1.27017
1.10609
1.02671
1.1267
1.33393
1.49442
1.06413
0.288962
-0.497171
-0.912341
-0.995563
1.51076
1.52469
1.53411
1.54158
1.59002
1.59534
1.55287
1.50925
1.47052
1.39176
1.25123
1.03967
0.728975
0.394945
0.262074
0.403025
0.709677
0.722749
0.217696
-0.452815
-0.892803
-1.05827
-1.06166
1.38015
1.40134
1.3975
1.39436
1.39884
1.39191
1.36297
1.31772
1.24427
1.11317
0.921587
0.629752
0.181826
-0.250572
-0.364963
-0.15733
0.111385
0.026543
-0.443101
-0.839823
-1.02186
-1.08512
-1.1083
1.22329
1.23766
1.23105
1.22058
1.20907
1.18714
1.14989
1.09487
0.999405
0.83853
0.608828
0.254278
-0.215676
-0.640802
-0.762305
-0.578946
-0.404671
-0.574315
-0.835134
-0.999386
-1.08998
-1.15324
-1.22023
1.06503
1.0631
1.05646
1.04165
1.02014
0.987821
0.941484
0.875757
0.767737
0.595481
0.350637
0.000904253
-0.417668
-0.805215
-0.920778
-0.818088
-0.785441
-0.888928
-1.00039
-1.09694
-1.18608
-1.27903
-1.39126
0.908775
0.898708
0.887525
0.866516
0.836839
0.795756
0.740801
0.666453
0.555589
0.390746
0.161645
-0.135583
-0.469026
-0.749404
-0.86093
-0.894333
-0.954131
-1.01867
-1.1103
-1.21863
-1.33988
-1.47712
-1.63733
0.752993
0.738259
0.723542
0.697535
0.6615
0.613453
0.551412
0.47115
0.362837
0.213683
0.0162091
-0.225181
-0.472435
-0.685714
-0.836327
-0.937524
-1.0206
-1.11899
-1.24628
-1.39082
-1.55073
-1.73224
-1.94049
0.601207
0.585057
0.567174
0.537401
0.496562
0.443307
0.375952
0.291606
0.185467
0.0490261
-0.121054
-0.318316
-0.521405
-0.708789
-0.865009
-0.996391
-1.12379
-1.26253
-1.4199
-1.59655
-1.79547
-2.02345
-2.28513
0.456308
0.440502
0.420012
0.387555
0.343353
0.286504
0.215803
0.12938
0.023991
-0.104682
-0.257443
-0.429377
-0.609305
-0.784381
-0.947459
-1.10253
-1.25928
-1.42366
-1.60899
-1.81873
-2.05833
-2.33495
-2.65629
0.320346
0.305435
0.283126
0.248861
0.202539
0.143565
0.0712574
-0.0155028
-0.119795
-0.243397
-0.386361
-0.545291
-0.713552
-0.884078
-1.0534
-1.22334
-1.4
-1.58789
-1.80082
-2.04362
-2.32297
-2.64814
-3.03136
0.194616
0.180564
0.157216
0.121846
0.0743419
0.014204
-0.0575908
-0.14454
-0.247114
-0.366686
-0.503397
-0.655124
-0.817746
-0.98703
-1.1614
-1.34296
-1.53695
-1.74447
-1.98344
-2.25667
-2.57274
-2.94279
-3.38283
0.0796734
0.0664102
0.0425646
0.00673399
-0.0410343
-0.100967
-0.173144
-0.258941
-0.35938
-0.475529
-0.607698
-0.754702
-0.914065
-1.08343
-1.26232
-1.45292
-1.65974
-1.88756
-2.14692
-2.4455
-2.79249
-3.19975
-3.68508
-0.0242737
-0.0367375
-0.0607088
-0.0965547
-0.14415
-0.203541
-0.274974
-0.359262
-0.45741
-0.570435
-0.698866
-0.842237
-0.999218
-1.16864
-1.35077
-1.54804
-1.76504
-2.00798
-2.28259
-2.60113
-2.97124
-3.40525
-3.92129
-0.117092
-0.128961
-0.152708
-0.188175
-0.235152
-0.293594
-0.363703
-0.446087
-0.541683
-0.651532
-0.776369
-0.916258
-1.07069
-1.23931
-1.42288
-1.62403
-1.84738
-2.09904
-2.38611
-2.71817
-3.10268
-3.55363
-4.08858
-0.19886
-0.210343
-0.233583
-0.268329
-0.314303
-0.371395
-0.439736
-0.51982
-0.612512
-0.718862
-0.839775
-0.97572
-1.12677
-1.29313
-1.47593
-1.67788
-1.90349
-2.15874
-2.45082
-2.7886
-3.18169
-3.64246
-4.18967
-0.269931
-0.281017
-0.303568
-0.337317
-0.381952
-0.437322
-0.503492
-0.580867
-0.670226
-0.772594
-0.888985
-1.02016
-1.1666
-1.3289
-1.50841
-1.70783
-1.93143
-2.18488
-2.47521
-2.81119
-3.20321
-3.66425
-4.21549
-0.330713
-0.341352
-0.363055
-0.395565
-0.438558
-0.491857
-0.55547
-0.629714
-0.715269
-0.813089
-0.924224
-1.0496
-1.18999
-1.34624
-1.51981
-1.71327
-1.93052
-2.17678
-2.45869
-2.78477
-3.16558
-3.61489
-4.1561
-0.381728
-0.391865
-0.412573
-0.443622
-0.484684
-0.535577
-0.596254
-0.666946
-0.748209
-0.840896
-0.946014
-1.06456
-1.19745
-1.34567
-1.51068
-1.69481
-1.90147
-2.1353
-2.40227
-2.71026
-3.06928
-3.49306
-4.00561
-0.423581
-0.433163
-0.452738
-0.482115
-0.520976
-0.569137
-0.62651
-0.693238
-0.769742
-0.856738
-0.955132
-1.06589
-1.18997
-1.32838
-1.48249
-1.65426
-1.84654
-2.06317
-2.30924
-2.59151
-2.91872
-3.30328
-3.767
-0.456918
-0.465893
-0.48421
-0.511721
-0.54813
-0.593256
-0.646981
-0.709359
-0.780683
-0.861503
-0.952574
-1.05476
-1.16895
-1.29609
-1.43736
-1.59432
-1.76915
-1.96479
-2.18518
-2.43564
-2.723
-3.05707
-3.45477
-0.482394
-0.490713
-0.507665
-0.533143
-0.566881
-0.608702
-0.658468
-0.716158
-0.781939
-0.856192
-0.939484
-1.03251
-1.13602
-1.25083
-1.37784
-1.51821
-1.67341
-1.84542
-2.03694
-2.25161
-2.49403
-2.77068
-3.09211
-0.500663
-0.508282
-0.523784
-0.547096
-0.577982
-0.616276
-0.661823
-0.714541
-0.774489
-0.841881
-0.917085
-1.00059
-1.09296
-1.19478
-1.3067
-1.42942
-1.56376
-1.71077
-1.87191
-2.04917
-2.24494
-2.46235
-2.70579
-0.512376
-0.51926
-0.533253
-0.554304
-0.582207
-0.616805
-0.657934
-0.705466
-0.759366
-0.819702
-0.886653
-0.960492
-1.04155
-1.13019
-1.22674
-1.33149
-1.44467
-1.56655
-1.69747
-1.83795
-1.9885
-2.14941
-2.32033
-0.518185
-0.524313
-0.536764
-0.555498
-0.580338
-0.611137
-0.647722
-0.689931
-0.737654
-0.790835
-0.849492
-0.913697
-0.983556
-1.05917
-1.14057
-1.2277
-1.32029
-1.41796
-1.52019
-1.62636
-1.7355
-1.84587
-1.95407
-0.518737
-0.524102
-0.535001
-0.551404
-0.573155
-0.600118
-0.632114
-0.668954
-0.710462
-0.75649
-0.806921
-0.861662
-0.920621
-0.983666
-1.05057
-1.12094
-1.19414
-1.26932
-1.34537
-1.42089
-1.49393
-1.56153
-1.6187
-0.514713
-0.519321
-0.528683
-0.542779
-0.561461
-0.584614
-0.61205
-0.643558
-0.678912
-0.71789
-0.760271
-0.805833
-0.854333
-0.905458
-0.958766
-1.01362
-1.0691
-1.12405
-1.177
-1.22613
-1.26903
-1.30216
-1.32011
-0.506908
-0.510781
-0.518639
-0.530479
-0.546152
-0.565562
-0.588526
-0.614813
-0.644157
-0.67628
-0.71088
-0.747644
-0.786223
-0.826186
-0.866953
-0.907724
-0.94742
-0.984685
-1.01789
-1.04509
-1.06377
-1.0704
-1.05991
-0.496002
-0.499176
-0.505575
-0.515235
-0.527992
-0.543773
-0.562401
-0.583641
-0.607201
-0.632757
-0.659948
-0.688395
-0.717684
-0.747322
-0.776673
-0.804877
-0.830794
-0.853007
-0.869866
-0.879467
-0.879491
-0.866786
-0.837057
-0.481969
-0.484487
-0.489485
-0.497064
-0.507035
-0.519345
-0.533825
-0.550246
-0.568314
-0.587678
-0.607941
-0.628677
-0.649435
-0.669703
-0.688853
-0.706057
-0.720222
-0.729987
-0.733789
-0.729898
-0.71631
-0.690444
-0.648983
-0.464863
-0.46678
-0.470444
-0.476035
-0.483348
-0.492341
-0.502855
-0.514685
-0.52755
-0.541099
-0.554924
-0.568582
-0.581612
-0.593517
-0.603723
-0.611503
-0.615901
-0.615715
-0.609558
-0.595948
-0.573258
-0.539526
-0.492406
-0.447776
-0.449154
-0.451549
-0.455232
-0.459983
-0.465774
-0.472463
-0.479867
-0.487733
-0.495734
-0.503483
-0.510556
-0.51651
-0.52089
-0.523204
-0.522863
-0.519108
-0.510981
-0.497367
-0.477094
-0.448962
-0.411626
-0.363606
-0.435209
-0.436112
-0.437343
-0.439236
-0.441576
-0.444321
-0.447355
-0.45052
-0.453604
-0.456328
-0.458354
-0.459304
-0.458783
-0.456389
-0.45171
-0.444285
-0.433553
-0.418832
-0.399347
-0.374319
-0.343041
-0.304821
-0.259019
-0.420366
-0.420938
-0.42117
-0.421419
-0.42151
-0.4214
-0.421003
-0.420194
-0.418811
-0.416646
-0.413449
-0.408932
-0.402782
-0.394667
-0.384239
-0.371131
-0.354943
-0.335251
-0.311636
-0.28376
-0.251431
-0.214596
-0.173414
-0.379823
-0.380545
-0.379769
-0.378315
-0.376106
-0.37312
-0.369302
-0.364575
-0.358847
-0.352008
-0.343929
-0.334459
-0.323421
-0.310607
-0.295783
-0.278713
-0.259189
-0.237073
-0.212334
-0.185104
-0.155718
-0.124721
-0.0928843
-74.6076
-21.5158
11.8495
12.4694
222.285
97.4326
-19.346
-56.2598
302.901
206.57
130.628
101.207
191.637
152.598
120.471
103.848
50.0894
51.0062
49.1561
46.8824
2.05966
4.31533
9.71863
16.0447
-0.0758487
-0.304837
-0.435094
-0.411285
-0.662147
-0.720921
-0.837564
-0.922087
-0.992335
-1.01603
-1.07432
-1.13667
-1.06889
-1.10067
-1.15211
-1.22466
-1.15167
-1.19939
-1.26455
-1.35304
-1.29684
-1.35995
-1.43925
-1.53384
-1.49891
-1.58135
-1.68016
-1.79324
-1.77998
-1.88657
-2.01281
-2.15879
-2.1202
-2.25254
-2.4068
-2.58181
-2.51061
-2.67518
-2.86119
-3.06345
-2.93873
-3.14741
-3.38269
-3.64659
-3.37549
-3.62922
-3.91659
-4.25445
-3.78387
-4.07741
-4.41077
-4.79352
-4.12743
-4.44926
-4.81503
-5.23092
-4.38643
-4.71907
-5.09024
-5.50891
-4.56603
-4.90309
-5.27333
-5.68686
-4.67696
-5.02006
-5.39772
-5.82272
-4.70998
-5.06076
-5.45091
-5.89347
-4.64662
-4.99818
-5.39331
-5.84358
-4.47266
-4.80993
-5.19087
-5.62127
-4.18746
-4.49129
-4.83287
-5.2101
-3.80871
-4.06197
-4.34256
-4.64351
-3.36837
-3.56155
-3.77068
-3.98927
-2.90461
-3.03896
-3.17995
-3.32344
-2.45009
-2.5337
-2.61771
-2.69982
-2.02686
-2.06997
-2.10965
-2.14462
-1.64737
-1.66003
-1.66727
-1.66828
-1.31667
-1.30777
-1.29264
-1.2709
-1.03486
-1.01198
-0.982751
-0.947256
-0.798926
-0.768208
-0.731592
-0.689351
-0.604341
-0.570435
-0.531456
-0.487671
-0.446216
-0.412493
-0.374748
-0.333158
-0.319566
-0.288408
-0.25437
-0.217549
-0.219571
-0.192532
-0.163786
-0.133407
-0.140377
-0.118516
-0.0960888
-0.0732465
-0.0696399
-0.0551202
-0.0411787
-0.0280632
19.9612
21.0794
21.1267
21.2544
20.9786
20.8014
20.6725
20.5707
20.4916
20.4279
20.3741
20.3268
20.2846
20.2469
20.214
20.1866
20.1654
20.151
20.1437
19.6404
20.6624
21.0725
21.2802
20.838
20.6246
20.4838
20.3852
20.3155
20.2616
20.2153
20.1724
20.1319
20.0941
20.0601
20.031
20.0081
19.9924
19.9845
33.9876
-32.0133
15.6057
21.4441
20.7147
20.3801
20.253
20.1744
20.1252
20.0878
20.0523
20.0146
19.9753
19.9364
19.8999
19.868
19.8426
19.825
19.8161
57.364
-8.22763
-5.78595
13.0213
20.0508
19.8192
19.9469
19.9306
19.9222
19.9099
19.8876
19.8554
19.8161
19.774
19.7331
19.6969
19.6677
19.6474
19.6371
45.4234
22.0209
7.75695
-4.08759
6.37401
19.5718
19.685
19.6698
19.7102
19.7343
19.7275
19.6981
19.6552
19.6066
19.5587
19.5159
19.4815
19.4576
19.4454
27.515
24.7078
4.78402
-5.68213
-0.827928
13.7898
19.292
19.4319
19.5002
19.5658
19.577
19.5452
19.4927
19.4329
19.3745
19.3228
19.2815
19.253
19.2386
-0.39529
3.52572
16.0027
-13.1671
-4.33796
6.079
17.2192
19.2274
19.3717
19.4223
19.4407
19.3979
19.3269
19.2499
19.177
19.1139
19.0642
19.0303
19.0132
-1.09209
-1.52833
-0.992934
-6.63737
-15.0831
-0.220011
18.9215
19.2628
19.2167
19.2938
19.3154
19.2522
19.1518
19.0515
18.9607
18.8843
18.8253
18.7853
18.7653
-1.24742
-1.49856
-1.79291
-0.0303401
-33.9334
-21.4491
4.69775
17.8332
19.2615
19.2449
19.2083
19.0988
18.9579
18.8286
18.7181
18.6278
18.5593
18.5135
18.4908
-1.38178
-1.63972
-2.01194
-2.0276
-14.6017
-25.4079
-7.10418
17.9025
19.4011
19.2119
19.0473
18.8949
18.7232
18.5676
18.4395
18.3373
18.2608
18.2102
18.1852
-1.53689
-1.82291
-2.16074
-2.48019
-2.9208
-18.0997
-15.3463
15.6763
18.9066
19.009
18.7884
18.6088
18.4258
18.2551
18.1159
18.0061
17.9245
17.8709
17.8445
-1.7298
-2.03251
-2.35199
-2.641
-1.79088
-6.54879
-15.5106
13.039
18.3833
18.6643
18.4091
18.2326
18.0551
17.8825
17.7412
17.6296
17.5469
17.4927
17.466
-2.01478
-2.34328
-2.6274
-2.87853
-2.4081
3.20696
-9.2719
13.5731
18.2672
18.1945
17.9124
17.7698
17.6095
17.4473
17.3132
17.2061
17.1264
17.0741
17.0483
-2.4431
-2.81872
-3.07825
-3.3517
-3.79771
3.0008
-5.66234
13.3468
17.5074
17.487
17.3016
17.2211
17.0905
16.9521
16.8338
16.7369
16.6641
16.616
16.5922
-2.91667
-3.34509
-3.61055
-3.85437
-4.94035
-5.50637
-3.42199
12.4478
16.438
16.6359
16.6262
16.6106
16.5149
16.4071
16.3092
16.2264
16.1631
16.121
16.1
-3.42721
-3.82965
-4.0233
-4.22242
-4.85378
-9.54703
0.232172
12.5828
15.7232
15.8589
15.964
15.9724
15.9048
15.8253
15.748
15.6807
15.6285
15.5933
15.5758
-4.10826
-4.50847
-4.18222
-4.99889
-3.41222
1.93801
9.41547
15.284
15.3089
15.2317
15.3327
15.3229
15.2742
15.2168
15.1585
15.1069
15.066
15.0381
15.0242
-4.85696
-5.68398
-6.40902
-14.188
-17.3261
7.56249
14.1384
15.3166
14.6032
14.6285
14.6781
14.6552
14.6254
14.5876
14.5477
14.5113
14.4816
14.4609
14.4505
-5.47305
-6.53024
-8.75731
-60.0266
-52.1317
0.765128
11.7648
13.8989
13.7924
13.9551
13.9706
13.9668
13.9599
13.9431
13.922
13.9002
13.881
13.867
13.86
-6.02277
-7.27383
-8.89923
-10.5673
-41.8507
4.27848
12.1257
12.9325
13.0797
13.2192
13.237
13.2663
13.2852
13.2911
13.288
13.2795
13.2695
13.2615
13.2573
-6.31223
-7.42116
-8.7869
-9.56655
-29.6691
6.10794
11.0292
12.1262
12.2797
12.3942
12.4854
12.5637
12.6129
12.6408
12.6529
12.6548
12.652
12.6484
12.6463
-6.45718
-7.36804
-8.3523
-6.42797
-27.692
-5.15516
9.5769
11.2746
11.2707
11.4656
11.7222
11.8762
11.9568
12.0016
12.0231
12.0309
12.0319
12.0309
12.0302
-6.60062
-7.64811
-8.54487
-8.64239
-16.8974
-12.8047
8.76237
10.4683
10.2727
10.502
10.9921
11.2407
11.3351
11.3819
11.4029
11.4102
11.4114
11.411
11.4107
-6.71869
-8.00553
-9.13311
-10.9249
-11.9415
-17.3235
3.97333
10.4599
9.79215
9.94973
10.4768
10.7114
10.765
10.7857
10.7924
10.7924
10.7905
10.7891
10.7888
-6.69891
-8.13266
-9.60762
-12.35
-12.5987
-15.0873
-4.06566
10.8293
10.1362
10.1466
10.2431
10.2753
10.2299
10.2012
10.1843
10.1736
10.1674
10.1645
10.1645
-6.44612
-7.97535
-9.97802
-13.2048
-19.1282
-25.2715
-16.7851
4.75964
9.82382
10.1285
9.92535
9.77467
9.65766
9.59632
9.56406
9.5473
9.53927
9.5358
9.5382
-5.93139
-7.35665
-9.49119
-13.2817
-20.5784
-26.156
-16.7873
-0.548581
8.38074
9.17963
9.20781
9.08851
8.99582
8.94644
8.92089
8.90905
8.90469
8.90128
8.91185
-5.21172
-6.36451
-8.16288
-11.131
-15.2603
-17.8791
-12.9631
-1.34881
6.24092
7.91348
8.22803
8.25772
8.25682
8.25494
8.25618
8.26009
8.26545
8.26646
8.2813
-4.39202
-5.16788
-6.30249
-7.90614
-9.49108
-9.61721
-5.75757
0.729405
5.00059
6.61385
7.15658
7.37618
7.48346
7.5429
7.58045
7.60611
7.62438
7.63283
7.65034
-3.57883
-4.01865
-4.5478
-5.05446
-5.0654
-4.0699
-1.51386
1.8478
4.31112
5.57265
6.19533
6.53167
6.72068
6.83452
6.90701
6.95477
6.98645
7.00334
7.02229
-2.83742
-3.03205
-3.18564
-3.17578
-2.75333
-1.55929
0.271236
2.25997
3.80896
4.79875
5.39705
5.76716
5.9989
6.14858
6.24739
6.31321
6.35647
6.38117
6.40062
-2.19378
-2.22092
-2.15743
-1.91179
-1.3596
-0.382279
0.921424
2.2723
3.37821
4.17367
4.71404
5.07928
5.32579
5.49364
5.60843
5.68648
5.73822
5.76898
5.78807
-1.65584
-1.57899
-1.40402
-1.0767
-0.533051
0.248371
1.19723
2.16343
2.99463
3.64023
4.11451
4.45607
4.69915
4.87151
4.99297
5.07731
5.13401
5.1686
5.18659
-1.21912
-1.08479
-0.862216
-0.523982
-0.0398514
0.584653
1.29851
2.01526
2.65288
3.17481
3.5804
3.88686
4.1142
4.2808
4.40129
4.48663
4.54487
4.58106
4.59731
-0.873475
-0.713789
-0.480326
-0.165457
0.247344
0.745337
1.29301
1.83848
2.3341
2.75446
3.0943
3.36063
3.56474
3.71844
3.8321
3.91406
3.9708
4.00656
4.02063
-0.606355
-0.443775
-0.227963
0.055385
0.400047
0.796204
1.22005
1.63983
2.02653
2.36258
2.64206
2.86722
3.0442
3.18045
3.28312
3.35832
3.41104
3.44465
3.45622
-0.404371
-0.25113
-0.0573398
0.181818
0.46212
0.774109
1.10145
1.4241
1.72383
1.98866
2.21342
2.39828
2.54648
2.66263
2.75153
2.8175
2.86423
2.89436
2.90324
-0.255818
-0.120202
0.0442086
0.238946
0.460342
0.700975
0.949775
1.19393
1.42183
1.6254
1.80066
1.94702
2.06616
2.16086
2.23426
2.28931
2.32865
2.35433
2.36045
-0.150488
-0.0380184
0.0936492
0.244561
0.411881
0.590367
0.772753
0.950941
1.11762
1.26752
1.39783
1.50787
1.59845
1.67124
1.72822
1.77131
1.80232
1.82295
1.82631
-0.0794526
0.00629293
0.103254
0.211002
0.32793
0.450753
0.575005
0.695823
0.808839
0.910852
1.00007
1.07597
1.13895
1.18996
1.2302
1.26082
1.28298
1.2982
1.29904
-0.0343517
0.02206
0.0821078
0.146985
0.2161
0.287741
0.359553
0.429005
0.493842
0.552412
0.603779
0.647658
0.684247
0.714035
0.737656
0.755722
0.768835
0.778588
0.777161
-0.00799234
0.014519
0.0354153
0.0573561
0.0802227
0.10349
0.126452
0.148389
0.168692
0.186938
0.202915
0.216584
0.228028
0.2374
0.244887
0.250663
0.254732
0.2582
0.257233
)
;

boundaryField
{
    leftWall
    {
        type            calculated;
        value           nonuniform List<scalar> 
50
(
1603.01
1543.31
1482.76
1421.4
1359.28
1296.44
1232.95
1168.89
1067.87
928.35
787.417
645.481
503.149
360.92
220.01
92.9101
20.4302
1.51076
1.38015
1.22329
1.06503
0.908775
0.752993
0.601207
0.456308
0.320346
0.194616
0.0796734
-0.0242737
-0.117092
-0.19886
-0.269931
-0.330713
-0.381728
-0.423581
-0.456918
-0.482394
-0.500663
-0.512376
-0.518185
-0.518737
-0.514713
-0.506908
-0.496002
-0.481969
-0.464863
-0.447776
-0.435209
-0.420366
-0.379823
)
;
    }
    rightWall
    {
        type            calculated;
        value           nonuniform List<scalar> 
50
(
20.7082
20.648
20.5863
20.5231
20.4584
20.3922
20.3244
20.2549
20.1437
19.9845
19.8161
19.6371
19.4454
19.2386
19.0132
18.7653
18.4908
18.1852
17.8445
17.466
17.0483
16.5922
16.1
15.5758
15.0242
14.4505
13.86
13.2573
12.6463
12.0302
11.4107
10.7888
10.1645
9.5382
8.91185
8.2813
7.65034
7.02229
6.40062
5.78807
5.18659
4.59731
4.02063
3.45622
2.90324
2.36045
1.82631
1.29904
0.777161
0.257233
)
;
    }
    lowerWall
    {
        type            calculated;
        value           nonuniform List<scalar> 
62
(
1632.44
1638.67
1640.74
1637.64
1629.47
1618.51
1606.62
1594.65
1583.03
1572.28
1563.1
1556.55
1554.11
1557.74
1570.03
1594.51
1633.87
1688.51
1753.2
1811.19
1831.35
1810.89
1857.15
1833.21
1777.1
1740.51
1719.31
1661.21
1557.64
1392.72
1148.67
-12.0477
41.0709
47.9963
13.5597
21.7929
21.7417
21.6995
21.6663
21.6428
21.6439
21.6672
21.6397
21.8223
21.7679
21.6874
21.5956
21.494
21.3886
21.2869
21.1932
21.1097
21.0367
20.9735
20.9193
20.8729
20.8338
20.8015
20.7759
20.7567
20.744
20.7376
)
;
    }
    atmosphere
    {
        type            calculated;
        value           nonuniform List<scalar> 
46
(
-0.336261
-0.337746
-0.336277
-0.333856
-0.3304
-0.3259
-0.320319
-0.313609
-0.305727
-0.296626
-0.286262
-0.274581
-0.261506
-0.246933
-0.230733
-0.212783
-0.193016
-0.171476
-0.148348
-0.123998
-0.099011
-0.0742799
-0.0507583
-0.034835
-0.025705
-0.0176094
-0.0107629
-0.00278863
0
0
0
0
0
0
0
0
0
0
0
0
0
0
0
0
0
0
)
;
    }
    defaultFaces
    {
        type            empty;
    }
}


// ************************************************************************* //
