/*--------------------------------*- C++ -*----------------------------------*\
  =========                 |
  \\      /  F ield         | OpenFOAM: The Open Source CFD Toolbox
   \\    /   O peration     | Website:  https://openfoam.org
    \\  /    A nd           | Version:  13
     \\/     M anipulation  |
\*---------------------------------------------------------------------------*/
FoamFile
{
    format      ascii;
    class       volScalarField;
    location    "0.25";
    object      p_rgh;
}
// * * * * * * * * * * * * * * * * * * * * * * * * * * * * * * * * * * * * * //

dimensions      [1 -1 -2 0 0 0 0];

internalField   nonuniform List<scalar> 
2268
(
1632.44
1638.67
1640.74
1637.64
1629.47
1618.51
1606.62
1594.65
1583.03
1572.28
1563.1
1556.55
1554.11
1557.74
1570.03
1594.51
1633.87
1688.51
1753.2
1811.19
1831.35
1810.89
1857.15
1631.6
1637.72
1639.76
1636.6
1628.41
1617.47
1605.59
1593.59
1581.91
1571.02
1561.67
1554.91
1552.2
1555.43
1566.84
1588.46
1623.8
1674.43
1738.18
1800.08
1827.4
1797.89
1855.19
1629.91
1635.84
1637.81
1634.52
1626.3
1615.39
1603.54
1591.48
1579.64
1568.51
1558.81
1551.61
1548.35
1550.87
1561.31
1582.03
1614.65
1659.99
1715.48
1772.42
1813.81
1825.57
1883.09
1627.41
1633.08
1634.91
1631.44
1623.16
1612.31
1600.48
1588.33
1576.24
1564.72
1554.51
1546.65
1542.58
1544.09
1553.23
1572.11
1602.13
1643.49
1693.19
1744.75
1794.67
1838.86
1918.38
1624.14
1629.49
1631.14
1627.4
1619.04
1608.25
1596.43
1584.13
1571.7
1559.65
1548.73
1539.99
1534.84
1535.02
1542.51
1559.22
1586.44
1624.22
1670.27
1718.99
1771.14
1828.24
1917.1
1620.16
1625.17
1626.54
1622.48
1614.03
1603.28
1591.43
1578.9
1566.01
1553.27
1541.44
1531.57
1525.06
1523.58
1529.04
1543.27
1567.48
1601.71
1644.31
1690.39
1739.77
1793.79
1870.41
1615.53
1620.19
1621.14
1616.68
1608.14
1597.45
1585.51
1572.66
1559.19
1545.6
1532.66
1521.42
1513.24
1509.76
1512.8
1524.13
1544.97
1575.42
1613.99
1656.05
1698.01
1736.24
1763.2
1610.33
1614.6
1614.92
1609.99
1601.4
1590.76
1578.71
1565.45
1551.27
1536.7
1522.48
1509.66
1499.53
1493.71
1493.95
1501.95
1518.89
1545.13
1578.97
1615.11
1644.55
1659.71
1587.45
21.8223
21.7679
21.6874
21.5956
21.494
21.3886
21.2869
21.1932
21.1097
21.0367
20.9735
20.9193
20.8729
20.8338
20.8015
20.7759
20.7567
20.744
20.7376
21.83
21.7715
21.6893
21.5974
21.4946
21.388
21.2854
21.1913
21.1078
21.0349
20.9718
20.9177
20.8715
20.8324
20.8002
20.7746
20.7554
20.7427
20.7363
21.8466
21.7786
21.6928
21.6011
21.496
21.3867
21.2824
21.1876
21.1039
21.0313
20.9685
20.9147
20.8687
20.8297
20.7976
20.7719
20.7527
20.7399
20.7335
21.8723
21.7878
21.6972
21.6071
21.4981
21.3844
21.2777
21.1819
21.0981
21.0258
20.9636
20.9102
20.8645
20.8257
20.7936
20.7678
20.7485
20.7356
20.7291
21.9077
21.7957
21.7015
21.6164
21.501
21.3811
21.2711
21.174
21.0901
21.0185
20.957
20.9043
20.859
20.8204
20.7882
20.7624
20.7429
20.7298
20.7233
21.9684
21.7977
21.7042
21.6309
21.5046
21.3761
21.2621
21.1637
21.08
21.0091
20.9488
20.8969
20.8522
20.8138
20.7816
20.7555
20.7358
20.7226
20.7159
22.0618
21.7969
21.7038
21.6541
21.5085
21.3686
21.2504
21.1506
21.0676
20.998
20.939
20.8881
20.844
20.8059
20.7736
20.7473
20.7272
20.7137
20.707
22.1464
21.8018
21.7016
21.6919
21.511
21.3579
21.2354
21.1346
21.0526
20.9849
20.9276
20.878
20.8346
20.7967
20.7643
20.7376
20.7171
20.7033
20.6964
1601.34
1604.89
1604.15
1598.47
1589.71
1579.03
1566.63
1552.54
1537.03
1520.62
1504.07
1488.35
1474.67
1464.55
1459.67
1461.75
1472
1490.44
1516.14
1540.72
1542.82
1488.6
1130.47
1587.01
1589.54
1587.25
1580.45
1571.12
1559.82
1546.27
1530.32
1512.18
1492.29
1471.28
1449.95
1429.43
1411.35
1397.19
1388.86
1387.24
1390.27
1402.28
1406.64
1385.28
1310.88
1133.21
1571.27
1572.62
1568.42
1560.29
1550.12
1537.7
1522.33
1503.77
1482.13
1457.68
1430.95
1402.62
1373.85
1346.21
1320.16
1297.88
1282.97
1282.26
1282.11
1282.88
1282.71
1253.61
1191.88
1554.53
1554.33
1547.95
1538.41
1527.09
1512.94
1495.1
1473.3
1447.56
1417.98
1385.08
1348.99
1309.86
1267.5
1218.51
1159.96
1070.59
977.457
922.229
966.984
1106.96
1142.09
1140.66
1537.39
1534.7
1526.16
1515.4
1502.79
1486.42
1465.81
1440.74
1410.92
1375.87
1335.78
1288.21
1227.1
1086.8
818.104
506.5
271.125
157.425
92.4954
116.438
196.114
374.283
638.428
1520.35
1515.09
1504.89
1493.07
1478.93
1459.49
1435.6
1406.59
1371.29
1317.94
1203.21
960.596
610.553
197.49
5.54358
4.30551
4.46544
4.65863
4.9878
5.78593
5.089
4.97308
20.8308
1504.31
1495.01
1482.31
1469.11
1453.22
1419.42
1349.89
1221.77
1004.39
650.886
320.328
11.556
3.63851
3.62219
3.78992
3.77903
3.91338
4.13052
4.41777
4.37915
3.87367
3.31367
2.32471
1438.05
1147.26
1119.24
1062.3
931.286
704.076
462.668
240.26
37.121
3.50892
3.12042
3.15591
3.13712
3.14833
3.20585
3.3321
3.47266
3.66779
5.93497
5.81993
4.85122
2.05613
1.02367
479.715
135.864
109.056
74.1637
13.801
3.43771
3.24344
3.17241
3.20766
3.17027
3.04297
2.93324
2.83188
2.82581
2.6671
2.75368
2.96047
4.66593
5.69934
4.92417
4.13804
1.33577
0.570997
3.17098
3.1849
3.19433
3.2018
3.25024
3.25556
3.21309
3.16947
3.13073
3.05198
2.9116
2.70734
3.001
2.86651
2.32077
2.16913
2.70963
5.69759
5.21739
4.56043
1.81025
0.635498
0.602122
3.16556
3.18676
3.18291
3.17977
3.18426
3.17732
3.14838
3.10313
3.02968
2.89858
2.70778
3.10029
2.84047
2.40606
1.87612
1.77217
4.46972
5.36429
4.91904
2.28474
0.771554
0.701355
0.677828
3.1339
3.14826
3.14166
3.13119
3.11967
3.09775
3.0605
3.00548
2.91001
2.74914
2.5357
3.02501
2.6194
2.01412
1.66016
3.95556
5.18761
5.07472
2.5728
0.912159
0.82076
0.757379
0.690397
3.10083
3.0989
3.09226
3.07745
3.05594
3.02362
2.97729
2.91156
2.80358
2.63129
2.45223
2.12555
2.39467
2.19749
2.96453
4.79481
4.76562
1.88286
1.03559
0.938894
0.849722
0.756774
0.644552
3.06977
3.0597
3.04852
3.02751
2.99783
2.95675
2.9018
2.82745
2.71667
2.5521
2.32269
2.02546
1.69293
2.4749
3.57493
3.54115
1.20686
1.14232
1.0507
0.942365
0.82112
0.683871
0.52374
3.03918
3.02445
3.00973
2.98373
2.94769
2.89964
2.8376
2.75734
2.64908
2.50023
2.30242
2.06101
1.82964
1.71695
1.49558
1.34867
1.2656
1.1672
1.03991
0.895374
0.735459
0.553951
0.345719
3.01259
2.99644
2.97856
2.94879
2.90795
2.85469
2.78734
2.70299
2.59685
2.46041
2.29036
2.09307
1.88998
1.7026
1.54638
1.41499
1.28759
1.14886
0.991485
0.814835
0.615914
0.387941
0.126274
2.99289
2.97708
2.95659
2.92413
2.87993
2.82308
2.75238
2.66596
2.56057
2.43194
2.27923
2.10725
1.92728
1.7522
1.58912
1.43404
1.2773
1.11292
0.927587
0.717848
0.478253
0.201628
-0.119681
2.98212
2.96721
2.9449
2.91064
2.86431
2.80534
2.73303
2.64627
2.54198
2.41844
2.27551
2.11658
1.94823
1.7777
1.60838
1.43843
1.26177
1.07388
0.860952
0.618155
0.3388
0.0136388
-0.369568
2.98158
2.96753
2.94418
2.90881
2.86131
2.80117
2.72938
2.64243
2.53985
2.42028
2.28362
2.13187
1.96922
1.79994
1.62557
1.44401
1.25002
1.0425
0.803524
0.5303
0.214234
-0.155815
-0.595847
2.99184
2.97857
2.95473
2.9189
2.87113
2.8112
2.73902
2.65322
2.55278
2.43663
2.30447
2.15746
1.9981
1.82873
1.64984
1.45924
1.25242
1.0246
0.765248
0.466663
0.119675
-0.287587
-0.772898
3.01308
3.00062
2.97665
2.9408
2.89321
2.83382
2.76238
2.6781
2.57995
2.46692
2.33849
2.19512
2.03814
1.86871
1.68658
1.48932
1.27231
1.02938
0.754772
0.436229
0.0661154
-0.367885
-0.883914
3.04546
3.03359
3.00984
2.97438
2.9274
2.86896
2.79885
2.71647
2.62087
2.51102
2.38618
2.24629
2.09186
1.92324
1.73968
1.53853
1.31517
1.06351
0.776445
0.44438
0.0598709
-0.391074
-0.926005
3.08889
3.0774
3.05416
3.01942
2.97344
2.91635
2.84801
2.76793
2.67523
2.56888
2.44797
2.31203
2.16098
1.99461
1.81182
1.60987
1.38425
1.12901
0.836923
0.499151
0.106055
-0.354709
-0.901906
3.14301
3.13192
3.10937
3.07562
3.03099
2.97562
2.90945
2.83207
2.74272
2.64035
2.52396
2.39278
2.24634
2.08404
1.90453
1.70511
1.48151
1.22806
0.937729
0.601751
0.209732
-0.251312
-0.80254
3.20742
3.19678
3.17508
3.14257
3.09958
3.04628
2.98267
2.90842
2.82287
2.72505
2.61391
2.48853
2.34815
2.19189
2.01832
1.82487
1.60762
1.36136
1.07945
0.753361
0.372556
-0.0767499
-0.617955
3.2816
3.27147
3.25076
3.21971
3.17865
3.12775
3.06708
2.99638
2.91512
2.82243
2.71732
2.59877
2.46588
2.31766
2.15265
1.96852
1.76186
1.52803
1.26106
0.953073
0.594051
0.17027
-0.342277
3.36494
3.35536
3.33579
3.30641
3.26755
3.21939
3.16201
3.09529
3.01878
2.93179
2.83339
2.72263
2.59856
2.46014
2.30604
2.13427
1.94199
1.72535
1.47928
1.19701
0.869803
0.485247
0.0215254
3.4568
3.44783
3.42951
3.402
3.36559
3.32046
3.26674
3.20436
3.13304
3.05222
2.96115
2.85896
2.74477
2.61763
2.47636
2.3194
2.14457
1.94893
1.72854
1.47808
1.19072
0.856653
0.45895
3.55652
3.5482
3.53125
3.50577
3.47203
3.43021
3.38045
3.32276
3.25697
3.18272
3.09943
3.00641
2.9029
2.78809
2.66107
2.5207
2.36551
2.19349
2.00197
1.78731
1.54488
1.26823
0.946802
3.66345
3.65583
3.64032
3.61701
3.58613
3.54783
3.50229
3.44957
3.38962
3.32223
3.24702
3.16352
3.07115
2.96933
2.85741
2.73469
2.60035
2.45334
2.29219
2.11494
1.91916
1.70176
1.45832
3.77693
3.77004
3.75605
3.735
3.7071
3.6725
3.63137
3.58384
3.52994
3.4696
3.40265
3.32881
3.24775
3.15911
3.06257
2.95782
2.84463
2.72275
2.59183
2.45135
2.3008
2.13989
1.96897
3.89631
3.89018
3.87773
3.859
3.83416
3.80336
3.76678
3.72457
3.67684
3.62366
3.56501
3.5008
3.43094
3.35533
3.27392
3.1868
3.09421
2.99654
2.89431
2.78814
2.679
2.56863
2.46043
4.02096
4.01559
4.00469
3.98829
3.96654
3.93957
3.90758
3.87074
3.82923
3.7832
3.73277
3.67803
3.61907
3.55603
3.48912
3.41876
3.34555
3.27037
3.19432
3.11881
3.04576
2.97816
2.92099
4.15017
4.14557
4.1362
4.12211
4.10343
4.08027
4.05284
4.02133
3.98597
3.947
3.90462
3.85905
3.81055
3.75943
3.70612
3.65127
3.59578
3.54084
3.48788
3.43875
3.39586
3.36273
3.34478
4.28317
4.2793
4.27144
4.2596
4.24393
4.22452
4.20155
4.17527
4.14592
4.1138
4.0792
4.04244
4.00386
3.9639
3.92313
3.88236
3.84266
3.8054
3.77219
3.74499
3.72631
3.71968
3.73017
4.41927
4.4161
4.4097
4.40004
4.38728
4.3715
4.35287
4.33163
4.30807
4.28252
4.25533
4.22688
4.19759
4.16795
4.1386
4.1104
4.08448
4.06227
4.04541
4.03581
4.03578
4.04849
4.07822
4.5585
4.55598
4.55098
4.54341
4.53343
4.52112
4.50664
4.49022
4.47216
4.45279
4.43253
4.41179
4.39104
4.37077
4.35162
4.33441
4.32025
4.31048
4.30668
4.31057
4.32416
4.35003
4.39149
4.7008
4.69888
4.69522
4.68963
4.68232
4.67332
4.66281
4.65098
4.63811
4.62457
4.61074
4.59708
4.58405
4.57215
4.56194
4.55416
4.54976
4.54995
4.55611
4.56972
4.59241
4.62614
4.67326
4.84308
4.84171
4.83931
4.83563
4.83088
4.82509
4.8184
4.81099
4.80313
4.79513
4.78738
4.7803
4.77435
4.76997
4.76765
4.768
4.77175
4.77988
4.79349
4.81377
4.8419
4.87923
4.92725
4.98084
4.97994
4.97871
4.97682
4.97448
4.97173
4.9687
4.96553
4.96245
4.95973
4.9577
4.95675
4.95727
4.95966
4.96434
4.97177
4.9825
4.99722
5.01671
5.04173
5.07301
5.11123
5.15703
5.12088
5.12031
5.12008
5.11983
5.11974
5.11985
5.12025
5.12105
5.12244
5.1246
5.1278
5.13232
5.13847
5.14658
5.15701
5.17012
5.1863
5.206
5.22961
5.25749
5.28982
5.32665
5.36783
5.28662
5.2859
5.28667
5.28813
5.29034
5.29332
5.29714
5.30187
5.3076
5.31443
5.32251
5.33198
5.34302
5.35584
5.37066
5.38773
5.40725
5.42937
5.45411
5.48134
5.51073
5.54172
5.57356
458.541
511.862
319.9
21.7604
880.877
756.03
620.787
552.83
1086.73
990.361
913.847
884.377
1100.61
1061.56
1029.38
1012.54
881.794
1083.88
1082.99
1080.11
57.6378
134.424
232.871
347.138
2.4219
5.3812
6.86004
3.01381
0.923613
0.959464
0.882122
1.75486
0.568757
0.550938
0.493737
0.435362
0.595304
0.562888
0.511069
0.438474
0.635638
0.586533
0.52102
0.432537
0.613795
0.5507
0.471398
0.376818
0.536933
0.454493
0.355681
0.242615
0.381123
0.27453
0.148233
0.0022566
0.166101
0.0337371
-0.120563
-0.295562
-0.0992098
-0.26377
-0.449778
-0.652008
-0.402123
-0.610801
-0.846052
-1.10988
-0.713698
-0.967109
-1.25467
-1.59227
-0.996881
-1.28982
-1.62285
-2.00536
-1.21518
-1.53639
-1.89912
-2.30864
-1.34891
-1.68066
-2.04821
-2.45681
-1.4033
-1.73937
-2.10641
-2.50722
-1.38909
-1.73146
-2.1066
-2.52307
-1.29696
-1.64724
-2.03557
-2.47234
-1.10843
-1.45964
-1.85347
-2.2992
-0.809292
-1.14631
-1.52627
-1.95299
-0.398911
-0.702567
-1.04342
-1.41789
0.105019
-0.148145
-0.428389
-0.72798
0.670553
0.477398
0.268387
0.050282
1.2595
1.12515
0.984188
0.840768
1.83921
1.7556
1.6716
1.58949
2.38763
2.34452
2.30484
2.26988
2.89232
2.87966
2.87242
2.87141
3.34822
3.35711
3.37225
3.39399
3.75522
3.77811
3.80733
3.84282
4.11635
4.14707
4.18368
4.22592
4.43613
4.47004
4.50901
4.5528
4.71945
4.75317
4.79092
4.83251
4.97129
5.00245
5.03649
5.07331
5.19648
5.22352
5.25227
5.28265
5.40087
5.42273
5.44516
5.468
5.5968
5.61132
5.62526
5.63838
35.3337
21.6705
21.6625
21.7882
21.5121
21.3348
21.2059
21.1042
21.0251
20.9614
20.9076
20.8603
20.818
20.7803
20.7475
20.7201
20.6988
20.6844
20.6772
396.67
21.6856
21.8363
21.9485
21.4968
21.2833
21.1425
21.0439
20.9742
20.9203
20.874
20.8311
20.7906
20.7528
20.7187
20.6896
20.6667
20.651
20.6431
815.24
619.126
111
22.33
21.5025
21.1642
21.0368
20.9583
20.909
20.8716
20.8361
20.7984
20.7592
20.7202
20.6838
20.6519
20.6264
20.6088
20.5999
965.519
897.963
809.193
235.359
21.2877
20.7431
20.8575
20.84
20.8313
20.819
20.7966
20.7645
20.7251
20.683
20.6422
20.6059
20.5767
20.5564
20.5461
1076.42
1050.68
1035.1
946.284
288.018
20.7381
20.7852
20.711
20.745
20.7686
20.7617
20.7324
20.6894
20.6408
20.5929
20.5502
20.5157
20.4918
20.4797
718.076
1176.39
1147.29
1121.02
990.645
249.094
21.7101
20.7792
20.6758
20.7264
20.7365
20.7047
20.6521
20.5924
20.5339
20.4823
20.441
20.4124
20.398
21.9581
164.569
906.807
1220.05
1180.34
804.569
111.78
22.9174
20.9226
20.7297
20.7269
20.6826
20.6115
20.5345
20.4616
20.3986
20.3489
20.3149
20.2978
0.991735
0.900711
47.1189
899.76
1241.68
1202.29
425.348
31.0277
22.0492
20.8718
20.7411
20.6632
20.5617
20.4614
20.3706
20.2942
20.2351
20.1951
20.1752
0.353769
0.147744
0.218678
172.431
1136.56
1201.6
803.722
95.3708
24.8974
21.3726
20.8126
20.6402
20.4935
20.3636
20.2531
20.1628
20.0943
20.0486
20.0258
0.283322
0.0335209
-0.310724
0.141853
750.239
1244.3
1050.37
207.033
29.2792
22.2024
20.8858
20.5743
20.3854
20.228
20.0997
19.9975
19.921
19.8704
19.8454
0.248806
-0.0360879
-0.370978
-0.651343
282.496
1217.4
1138.07
403.544
33.7325
23.0734
20.9049
20.4344
20.2155
20.0409
19.9014
19.7915
19.7099
19.6563
19.6299
0.18089
-0.121638
-0.440567
-0.722882
75.711
1079.24
1120.02
572.292
42.8579
23.6194
20.7857
20.2023
19.9725
19.7937
19.6518
19.5402
19.4575
19.4033
19.3766
0.0212226
-0.307173
-0.590925
-0.841624
12.2202
936.024
1155.41
571.304
41.2571
23.4816
20.4575
19.8716
19.6527
19.4838
19.349
19.2419
19.1622
19.1099
19.0841
-0.278161
-0.651764
-0.915341
-1.18871
10.8872
830.963
1158.02
489.729
35.9726
22.681
19.9412
19.4445
19.258
19.1137
18.9949
18.8979
18.8251
18.777
18.7532
-0.617698
-1.03932
-1.32144
-1.5653
34.098
843.915
1099.11
352.967
31.6381
21.2694
19.277
18.943
18.8068
18.6939
18.5955
18.5126
18.4493
18.4071
18.3862
-0.99259
-1.38842
-1.60617
-1.80706
176.006
933.829
941.063
226.524
27.2867
19.8283
18.6149
18.4214
18.3211
18.2372
18.1594
18.0921
18.0399
18.0047
17.9872
-1.49684
-1.92467
-1.63653
-2.45617
580.195
960.695
763.418
118.047
23.5422
18.795
18.0622
17.8895
17.8144
17.7538
17.6951
17.6434
17.6025
17.5746
17.5608
-2.03711
-2.96607
-3.68001
129.192
720.889
985.775
402.229
48.7645
21.5243
18.1344
17.4868
17.3363
17.2894
17.2495
17.2095
17.1731
17.1433
17.1226
17.1123
-2.52369
-3.66911
50.7709
467.086
687.032
417.698
57.1088
26.7469
19.3181
17.2581
16.8293
16.7625
16.7478
16.7301
16.7089
16.6872
16.6679
16.654
16.647
-3.06366
-4.14534
-5.77516
480.252
673.854
114.694
27.1888
17.8924
16.4413
16.2216
16.1628
16.1805
16.1977
16.2033
16.2001
16.1917
16.1817
16.1736
16.1694
-3.21559
-3.89211
-5.54304
479.513
695.96
230.44
19.9996
17.1127
15.4199
15.4446
15.5247
15.6014
15.6503
15.6782
15.6902
15.6922
15.6893
15.6857
15.6837
-3.23328
-3.72551
-4.98292
240.385
684.236
662.798
32.9571
14.7635
14.5884
14.6336
14.8855
15.0389
15.1194
15.1642
15.1857
15.1934
15.1945
15.1934
15.1927
-3.27229
-4.25769
-5.05339
-0.628473
673.119
649.855
245.382
15.7443
14.1421
13.8146
14.2814
14.5285
14.6228
14.6697
14.6907
14.6979
14.6992
14.6987
14.6985
-3.27968
-4.43703
-4.05446
-5.82911
545.835
655.559
676.553
65.064
14.2216
13.7049
13.9223
14.1268
14.178
14.1987
14.2054
14.2053
14.2035
14.202
14.2017
-3.13938
-4.49665
-5.19149
-4.03384
93.3841
682.164
673.036
366.177
27.0023
14.1773
13.8174
13.8151
13.7681
13.7393
13.7224
13.7117
13.7055
13.7026
13.7026
-2.76512
-4.24042
-5.81842
-3.89368
-9.47475
398.371
649.536
465.815
36.954
14.709
13.6684
13.4424
13.3212
13.2597
13.2274
13.2106
13.2026
13.1991
13.2015
-2.13
-3.52643
-5.46093
-5.82765
2.14012
20.7989
171.704
159.26
45.2217
15.1403
13.2165
12.8919
12.785
12.735
12.7094
12.6976
12.6932
12.6898
12.7004
-1.29143
-2.42688
-4.11075
-6.08413
-3.74835
-1.25959
6.62165
14.6568
22.1916
13.4823
12.2862
12.1801
12.1709
12.1687
12.1699
12.1738
12.1792
12.1802
12.195
-0.351108
-1.11435
-2.1968
-3.63735
-2.17664
-0.433523
2.11029
8.38139
9.72801
10.7307
11.2015
11.4153
11.5224
11.5818
11.6194
11.645
11.6633
11.6717
11.6892
0.585597
0.147588
-0.372436
-0.850718
-0.0792978
1.35042
3.4382
6.89327
8.70089
9.75936
10.3611
10.6958
10.8848
10.9986
11.0711
11.1189
11.1506
11.1674
11.1864
1.45192
1.2575
1.105
1.12084
1.68492
2.95891
4.71148
6.71782
8.15666
9.09378
9.6868
10.0565
10.2882
10.4379
10.5367
10.6025
10.6458
10.6705
10.6899
2.22072
2.1936
2.25721
2.50345
3.07462
4.06556
5.36207
6.71627
7.80509
8.58943
9.12865
9.49378
9.74029
9.90814
10.0229
10.101
10.1527
10.1835
10.2026
2.88385
2.96071
3.13569
3.46308
4.00885
4.79238
5.74088
6.70781
7.53668
8.18017
8.65422
8.99576
9.23884
9.4112
9.53266
9.617
9.6737
9.7083
9.72628
3.44576
3.58009
3.80267
4.14091
4.62524
5.25005
5.96395
6.68083
7.31817
7.83975
8.2453
8.55175
8.77908
8.94569
9.06618
9.15151
9.20975
9.24595
9.2622
3.91661
4.07629
4.30976
4.62462
5.03744
5.53547
6.08316
6.62865
7.12424
7.54455
7.88438
8.15071
8.35482
8.50852
8.62218
8.70414
8.76088
8.79664
8.81071
4.30892
4.4715
4.68731
4.97066
5.31532
5.71148
6.13533
6.55512
6.94181
7.27785
7.55734
7.78249
7.95947
8.09572
8.1984
8.27359
8.32631
8.35993
8.37149
4.6361
4.78934
4.98313
5.22229
5.50259
5.81458
6.14192
6.46457
6.76431
7.02913
7.25389
7.43875
7.58695
7.7031
7.792
7.85797
7.9047
7.93483
7.94371
4.90985
5.04546
5.20987
5.40461
5.62601
5.86664
6.11544
6.35959
6.58749
6.79107
6.96632
7.11269
7.23182
7.32652
7.39993
7.45497
7.49432
7.52
7.52611
5.14037
5.25284
5.38451
5.53542
5.70274
5.88123
6.06361
6.2418
6.40848
6.55838
6.68869
6.79873
6.88931
6.9621
7.01908
7.06217
7.09318
7.11381
7.11716
5.3366
5.42235
5.51931
5.62706
5.74398
5.86681
5.99106
6.11188
6.22489
6.32691
6.41612
6.49202
6.555
6.60602
6.64625
6.67688
6.69903
6.71426
6.71509
5.5069
5.56331
5.62336
5.68823
5.75735
5.82899
5.9008
5.97025
6.03509
6.09366
6.14503
6.18891
6.2255
6.25528
6.2789
6.29697
6.31008
6.31984
6.31841
5.65845
5.68096
5.70186
5.7238
5.74667
5.76993
5.79289
5.81483
5.83513
5.85338
5.86936
5.88303
5.89447
5.90384
5.91133
5.91711
5.92117
5.92464
5.92368
)
;

boundaryField
{
    leftWall
    {
        type            fixedFluxPressure;
        gradient        uniform 0;
        value           nonuniform List<scalar> 
50
(
1632.44
1631.6
1629.91
1627.41
1624.14
1620.16
1615.53
1610.33
1601.34
1587.01
1571.27
1554.53
1537.39
1520.35
1504.31
1438.05
479.715
3.17098
3.16556
3.1339
3.10083
3.06977
3.03918
3.01259
2.99289
2.98212
2.98158
2.99184
3.01308
3.04546
3.08889
3.14301
3.20742
3.2816
3.36494
3.4568
3.55652
3.66345
3.77693
3.89631
4.02096
4.15017
4.28317
4.41927
4.5585
4.7008
4.84308
4.98084
5.12088
5.28662
)
;
    }
    rightWall
    {
        type            fixedFluxPressure;
        gradient        uniform 0;
        value           nonuniform List<scalar> 
50
(
20.7376
20.7363
20.7335
20.7291
20.7233
20.7159
20.707
20.6964
20.6772
20.6431
20.5999
20.5461
20.4797
20.398
20.2978
20.1752
20.0258
19.8454
19.6299
19.3766
19.0841
18.7532
18.3862
17.9872
17.5608
17.1123
16.647
16.1694
15.6837
15.1927
14.6985
14.2017
13.7026
13.2015
12.7004
12.195
11.6892
11.1864
10.6899
10.2026
9.72628
9.2622
8.81071
8.37149
7.94371
7.52611
7.11716
6.71509
6.31841
5.92368
)
;
    }
    lowerWall
    {
        type            fixedFluxPressure;
        gradient        uniform 0;
        value           nonuniform List<scalar> 
62
(
1632.44
1638.67
1640.74
1637.64
1629.47
1618.51
1606.62
1594.65
1583.03
1572.28
1563.1
1556.55
1554.11
1557.74
1570.03
1594.51
1633.87
1688.51
1753.2
1811.19
1831.35
1810.89
1857.15
1857.15
1855.19
1883.09
1918.38
1917.1
1870.41
1763.2
1587.45
458.541
511.862
319.9
21.7604
21.8223
21.83
21.8466
21.8723
21.9077
21.9684
22.0618
22.1464
21.8223
21.7679
21.6874
21.5956
21.494
21.3886
21.2869
21.1932
21.1097
21.0367
20.9735
20.9193
20.8729
20.8338
20.8015
20.7759
20.7567
20.744
20.7376
)
;
    }
    atmosphere
    {
        type            prghTotalPressure;
        rho             rho;
        psi             none;
        gamma           1;
        p0              uniform 0;
        value           nonuniform List<scalar> 
46
(
5.39278
5.39129
5.39276
5.39518
5.39864
5.40314
5.40872
5.41543
5.42331
5.43241
5.44278
5.45446
5.46753
5.48211
5.49831
5.51626
5.53602
5.55756
5.58069
5.60504
5.63003
5.65476
5.67828
5.69421
5.70334
5.71143
5.71828
5.72625
5.72904
5.72904
5.72904
5.72904
5.72904
5.72904
5.72904
5.72904
5.72904
5.72904
5.72904
5.72904
5.72904
5.72904
5.72904
5.72904
5.72904
5.72904
)
;
        rho             rho;
    }
    defaultFaces
    {
        type            empty;
    }
}


// ************************************************************************* //
