/*--------------------------------*- C++ -*----------------------------------*\
  =========                 |
  \\      /  F ield         | OpenFOAM: The Open Source CFD Toolbox
   \\    /   O peration     | Website:  https://openfoam.org
    \\  /    A nd           | Version:  13
     \\/     M anipulation  |
\*---------------------------------------------------------------------------*/
FoamFile
{
    format      ascii;
    class       surfaceScalarField;
    location    "0.25";
    object      phi;
}
// * * * * * * * * * * * * * * * * * * * * * * * * * * * * * * * * * * * * * //

dimensions      [0 3 -1 0 0 0 0];

internalField   nonuniform List<scalar> 
4432
(
4.20265e-07
-4.20265e-07
5.01285e-06
-4.59258e-06
1.12011e-05
-6.1882e-06
1.72475e-05
-6.04643e-06
2.25672e-05
-5.31971e-06
2.72232e-05
-4.65604e-06
3.14671e-05
-4.2439e-06
3.55128e-05
-4.04569e-06
3.94676e-05
-3.95477e-06
4.33361e-05
-3.86848e-06
4.70479e-05
-3.71189e-06
5.04805e-05
-3.43259e-06
5.34713e-05
-2.99077e-06
5.57773e-05
-2.30603e-06
5.70496e-05
-1.27224e-06
5.64237e-05
6.25857e-07
5.22412e-05
4.18255e-06
4.2826e-05
9.41515e-06
2.70317e-05
1.57943e-05
6.29951e-06
2.07322e-05
-1.21397e-05
1.84392e-05
-1.79629e-05
5.82323e-06
-1.79629e-05
4.82011e-07
-9.02281e-07
5.1089e-06
-9.21947e-06
1.13035e-05
-1.23828e-05
1.73409e-05
-1.20838e-05
2.26516e-05
-1.06304e-05
2.73111e-05
-9.31556e-06
3.15767e-05
-8.5095e-06
3.56592e-05
-8.12811e-06
3.96594e-05
-7.95506e-06
4.35784e-05
-7.78747e-06
4.73453e-05
-7.47878e-06
5.08409e-05
-6.92818e-06
5.38998e-05
-6.04965e-06
5.63347e-05
-4.74093e-06
5.79117e-05
-2.84925e-06
5.86918e-05
-1.54299e-07
5.89935e-05
3.88094e-06
5.78074e-05
1.06012e-05
5.21612e-05
2.14406e-05
3.82317e-05
3.46617e-05
1.73225e-05
3.93483e-05
1.88541e-06
2.12604e-05
-1.60775e-05
5.84605e-07
-1.48689e-06
5.25266e-06
-1.38875e-05
1.14142e-05
-1.85444e-05
1.73731e-05
-1.80427e-05
2.26095e-05
-1.58668e-05
2.72288e-05
-1.39348e-05
3.14946e-05
-1.27753e-05
3.56086e-05
-1.22421e-05
3.9659e-05
-1.20054e-05
4.3638e-05
-1.17665e-05
4.7473e-05
-1.13138e-05
5.10475e-05
-1.05027e-05
5.42101e-05
-9.21224e-06
5.67756e-05
-7.30638e-06
5.85191e-05
-4.59274e-06
5.91626e-05
-7.97845e-07
5.85977e-05
4.44586e-06
5.73551e-05
1.18437e-05
5.60985e-05
2.26972e-05
5.25546e-05
3.82055e-05
4.07337e-05
5.11692e-05
2.01575e-05
4.18367e-05
4.07993e-06
7.40306e-07
-2.2272e-06
5.47505e-06
-1.86223e-05
1.15848e-05
-2.46542e-05
1.74259e-05
-2.38837e-05
2.25569e-05
-2.09979e-05
2.71264e-05
-1.85043e-05
3.14022e-05
-1.70511e-05
3.55696e-05
-1.64095e-05
3.96978e-05
-1.61336e-05
4.37677e-05
-1.58364e-05
4.77046e-05
-1.52506e-05
5.13972e-05
-1.41954e-05
5.47053e-05
-1.25203e-05
5.74574e-05
-1.00585e-05
5.94494e-05
-6.5848e-06
6.04428e-05
-1.79124e-06
6.01677e-05
4.72101e-06
5.85791e-05
1.34323e-05
5.6586e-05
2.46903e-05
5.52612e-05
3.95304e-05
4.95937e-05
5.68367e-05
3.08472e-05
6.05831e-05
3.49271e-05
9.47336e-07
-3.17453e-06
5.76169e-06
-2.34366e-05
1.17923e-05
-3.06847e-05
1.74771e-05
-2.95686e-05
2.24773e-05
-2.59981e-05
2.69924e-05
-2.30194e-05
3.12892e-05
-2.13479e-05
3.55285e-05
-2.06489e-05
3.97556e-05
-2.03608e-05
4.39387e-05
-2.00195e-05
4.80018e-05
-1.93137e-05
5.18412e-05
-1.80348e-05
5.533e-05
-1.60091e-05
5.83154e-05
-1.30439e-05
6.06166e-05
-8.88602e-06
6.20233e-05
-3.19792e-06
6.22991e-05
4.44521e-06
6.1235e-05
1.44964e-05
5.87422e-05
2.71831e-05
5.59658e-05
4.23068e-05
5.14402e-05
6.13623e-05
3.53551e-05
7.66682e-05
7.02823e-05
1.20068e-06
-4.37521e-06
6.09612e-06
-2.83321e-05
1.20153e-05
-3.6604e-05
1.75102e-05
-3.50634e-05
2.23632e-05
-3.08512e-05
2.6826e-05
-2.74822e-05
3.11563e-05
-2.56782e-05
3.54828e-05
-2.49753e-05
3.98235e-05
-2.47015e-05
4.4134e-05
-2.43299e-05
4.83394e-05
-2.35191e-05
5.23464e-05
-2.20419e-05
5.60447e-05
-1.97074e-05
5.93014e-05
-1.63006e-05
6.19562e-05
-1.15408e-05
6.38169e-05
-5.05862e-06
6.4653e-05
3.60909e-06
6.42502e-05
1.48992e-05
6.21891e-05
2.92443e-05
5.83394e-05
4.61564e-05
5.25918e-05
6.711e-05
3.75952e-05
9.16648e-05
0.000107877
1.49186e-06
-5.86708e-06
6.4636e-06
-3.33038e-05
1.2237e-05
-4.23774e-05
1.75152e-05
-4.03416e-05
2.22148e-05
-3.55508e-05
2.66342e-05
-3.19016e-05
3.10115e-05
-3.00554e-05
3.54365e-05
-2.94004e-05
3.98989e-05
-2.91639e-05
4.43437e-05
-2.87747e-05
4.87009e-05
-2.78763e-05
5.28922e-05
-2.62331e-05
5.68258e-05
-2.3641e-05
6.03878e-05
-1.98626e-05
6.34345e-05
-1.45876e-05
6.57895e-05
-7.41365e-06
6.72187e-05
2.17998e-06
6.74847e-05
1.46332e-05
6.62098e-05
3.05191e-05
6.25944e-05
4.97718e-05
5.58623e-05
7.3842e-05
4.25182e-05
0.000105009
0.000150396
1.80764e-06
-7.67472e-06
6.84307e-06
-3.83393e-05
1.24416e-05
-4.79759e-05
1.74926e-05
-4.53926e-05
2.20466e-05
-4.01048e-05
2.64372e-05
-3.62923e-05
3.08735e-05
-3.44917e-05
3.54029e-05
-3.39298e-05
3.9989e-05
-3.375e-05
4.45713e-05
-3.33569e-05
4.90915e-05
-3.23965e-05
5.34906e-05
-3.06322e-05
5.76948e-05
-2.78452e-05
6.1604e-05
-2.37718e-05
6.50858e-05
-1.80694e-05
6.79746e-05
-1.03024e-05
7.00317e-05
1.22821e-07
7.10005e-05
1.36645e-05
7.0608e-05
3.09116e-05
6.81133e-05
5.22665e-05
6.16132e-05
8.03422e-05
4.77545e-05
0.000118868
0.00019815
7.55096e-06
-7.55096e-06
1.15708e-05
-4.01975e-06
1.31221e-05
-1.55128e-06
1.40225e-05
-9.00552e-07
1.45766e-05
-5.54031e-07
1.49152e-05
-3.38668e-07
1.51184e-05
-2.0309e-07
1.52035e-05
-8.5042e-08
1.51431e-05
6.04456e-08
1.4881e-05
2.62291e-07
1.43339e-05
5.46984e-07
1.34627e-05
8.71259e-07
1.22667e-05
1.19591e-06
1.07675e-05
1.4992e-06
8.97779e-06
1.78979e-06
6.95291e-06
2.02463e-06
4.73827e-06
2.21476e-06
2.39583e-06
2.34236e-06
2.39565e-06
6.44209e-06
-1.39931e-05
1.06367e-05
-8.2143e-06
1.26353e-05
-3.54989e-06
1.40944e-05
-2.35974e-06
1.4955e-05
-1.41454e-06
1.54826e-05
-8.66205e-07
1.58619e-05
-5.82313e-07
1.61128e-05
-3.35706e-07
1.61941e-05
-2.09859e-08
1.60502e-05
4.06499e-07
1.56104e-05
9.86495e-07
1.48197e-05
1.66206e-06
1.36368e-05
2.37887e-06
1.20614e-05
3.07432e-06
1.01258e-05
3.72538e-06
7.8757e-06
4.2746e-06
5.38076e-06
4.70973e-06
2.72134e-06
5.00174e-06
5.1168e-06
7.50537e-06
-2.14985e-05
1.15231e-05
-1.2232e-05
1.30913e-05
-5.11814e-06
1.4349e-05
-3.61751e-06
1.50695e-05
-2.13482e-06
1.5513e-05
-1.30965e-06
1.58499e-05
-9.19296e-07
1.60881e-05
-5.73631e-07
1.61841e-05
-1.17067e-07
1.60443e-05
5.46349e-07
1.5598e-05
1.43262e-06
1.47926e-05
2.46763e-06
1.35975e-05
3.574e-06
1.20163e-05
4.65533e-06
1.00787e-05
5.66311e-06
7.8355e-06
6.51777e-06
5.35213e-06
7.19313e-06
2.70523e-06
7.64872e-06
7.82195e-06
8.93401e-06
-3.04325e-05
1.24023e-05
-1.57002e-05
1.33607e-05
-6.07646e-06
1.45822e-05
-4.83914e-06
1.52101e-05
-2.76261e-06
1.55706e-05
-1.67017e-06
1.58763e-05
-1.22502e-06
1.61332e-05
-8.3034e-07
1.62627e-05
-2.4673e-07
1.61587e-05
6.50511e-07
1.57325e-05
1.85871e-06
1.4931e-05
3.2691e-06
1.37271e-05
4.77806e-06
1.21259e-05
6.25638e-06
1.01694e-05
7.61988e-06
7.90244e-06
8.78476e-06
5.39479e-06
9.7007e-06
2.72831e-06
1.03154e-05
1.05504e-05
1.10226e-05
-4.14551e-05
1.34881e-05
-1.81656e-05
1.34873e-05
-6.07563e-06
1.48233e-05
-6.17524e-06
1.53813e-05
-3.3206e-06
1.56331e-05
-1.9221e-06
1.59144e-05
-1.50622e-06
1.62027e-05
-1.11857e-06
1.63958e-05
-4.39933e-07
1.63461e-05
7.00282e-07
1.59603e-05
2.24458e-06
1.51819e-05
4.04751e-06
1.39808e-05
5.97937e-06
1.23586e-05
7.87843e-06
1.03652e-05
9.61349e-06
8.05219e-06
1.10979e-05
5.50189e-06
1.22509e-05
2.78173e-06
1.30356e-05
1.33322e-05
1.4349e-05
-5.58041e-05
1.52801e-05
-1.90968e-05
1.3319e-05
-4.11439e-06
1.49705e-05
-7.82698e-06
1.5474e-05
-3.82406e-06
1.56347e-05
-2.08295e-06
1.59145e-05
-1.78588e-06
1.62758e-05
-1.47977e-06
1.65557e-05
-7.19863e-07
1.65957e-05
6.60354e-07
1.62715e-05
2.56891e-06
1.55165e-05
4.80243e-06
1.43103e-05
7.18563e-06
1.26639e-05
9.52473e-06
1.06209e-05
1.16567e-05
8.2595e-06
1.34593e-05
5.64201e-06
1.48682e-05
2.85228e-06
1.58255e-05
1.61844e-05
1.53978e-05
-7.12019e-05
1.57699e-05
-1.94691e-05
1.23801e-05
-7.24577e-07
1.50191e-05
-1.04661e-05
1.54378e-05
-4.24278e-06
1.55313e-05
-2.17649e-06
1.58603e-05
-2.11478e-06
1.63293e-05
-1.94859e-06
1.67406e-05
-1.13126e-06
1.68861e-05
5.14989e-07
1.66429e-05
2.81212e-06
1.59261e-05
5.51903e-06
1.4714e-05
8.39761e-06
1.3033e-05
1.12057e-05
1.09435e-05
1.37461e-05
8.50822e-06
1.58944e-05
5.80949e-06
1.75666e-05
2.93709e-06
1.8698e-05
1.91215e-05
6.76225e-06
-7.79642e-05
8.5356e-06
-2.12425e-05
9.18498e-06
-1.37396e-06
1.53626e-05
-1.66438e-05
1.5595e-05
-4.47515e-06
1.54857e-05
-2.06715e-06
1.58242e-05
-2.4532e-06
1.64098e-05
-2.53414e-06
1.69703e-05
-1.69175e-06
1.72527e-05
2.32599e-07
1.71e-05
2.96473e-06
1.64221e-05
6.19679e-06
1.52004e-05
9.61924e-06
1.34809e-05
1.29251e-05
1.13194e-05
1.59075e-05
8.80235e-06
1.84114e-05
6.01184e-06
2.03572e-05
3.03905e-06
2.16707e-05
2.21606e-05
4.85453e-06
-1.25292e-05
1.5808e-05
-4.92928e-05
2.70969e-05
-5.92647e-05
3.70725e-05
-5.53683e-05
4.6346e-05
-4.93783e-05
5.56723e-05
-4.56186e-05
6.53449e-05
-4.41643e-05
7.53339e-05
-4.39188e-05
8.55083e-05
-4.39245e-05
9.57543e-05
-4.36029e-05
0.000106005
-4.26475e-05
0.000116185
-4.08121e-05
0.000126159
-3.78186e-05
0.000135754
-3.33669e-05
0.000144778
-2.70932e-05
0.000152977
-1.8502e-05
0.000159858
-6.75853e-06
0.000164541
8.98242e-06
0.000166845
2.86071e-05
0.00016635
5.27612e-05
0.000163532
8.31603e-05
0.000166442
0.000115958
0.000168373
0.000196219
6.30119e-06
-1.88304e-05
1.73564e-05
-6.0348e-05
2.77458e-05
-6.9654e-05
3.68188e-05
-6.44413e-05
4.57002e-05
-5.82597e-05
5.51162e-05
-5.50345e-05
6.51515e-05
-5.41997e-05
7.56306e-05
-5.43978e-05
8.63948e-05
-5.46886e-05
9.73746e-05
-5.45827e-05
0.000108561
-5.38335e-05
0.00011986
-5.21111e-05
0.0001311
-4.90595e-05
0.000142286
-4.45527e-05
0.000153507
-3.83142e-05
0.000164851
-2.98462e-05
0.00017609
-1.79972e-05
0.000185597
-5.24323e-07
0.000194076
2.01278e-05
0.000200697
4.61403e-05
0.00020948
7.43769e-05
0.000224451
0.000100987
0.000135371
0.000257453
7.7334e-06
-2.65638e-05
1.872e-05
-7.13346e-05
2.81133e-05
-7.90474e-05
3.64018e-05
-7.27298e-05
4.50839e-05
-6.69417e-05
5.4691e-05
-6.46417e-05
6.50576e-05
-6.45662e-05
7.58938e-05
-6.52341e-05
8.70349e-05
-6.58297e-05
9.84151e-05
-6.59629e-05
0.000109993
-6.54118e-05
0.00012159
-6.37077e-05
0.000133245
-6.07149e-05
0.000145759
-5.70668e-05
0.000159535
-5.20894e-05
0.000174816
-4.51275e-05
0.000189765
-3.29463e-05
0.000204417
-1.51766e-05
0.000217482
7.06289e-06
0.00022679
3.68323e-05
0.000237769
6.33987e-05
0.00025048
8.82757e-05
0.000111631
0.00027422
9.08538e-06
-3.56492e-05
1.9761e-05
-8.20102e-05
2.81155e-05
-8.74019e-05
3.57857e-05
-8.04e-05
4.43797e-05
-7.55358e-05
5.40601e-05
-7.43221e-05
6.43885e-05
-7.48947e-05
7.49891e-05
-7.58347e-05
8.56923e-05
-7.65328e-05
9.64335e-05
-7.67041e-05
0.000107328
-7.63062e-05
0.000118606
-7.49858e-05
0.000131407
-7.35158e-05
0.000148292
-7.39519e-05
0.000167393
-7.11906e-05
0.000189224
-6.69578e-05
0.000211162
-5.48844e-05
0.000230394
-3.44093e-05
0.000242246
-4.78847e-06
0.000249432
2.96459e-05
0.000256874
5.59561e-05
0.00026683
7.83201e-05
9.62687e-05
0.000282192
1.03843e-05
-4.60335e-05
2.02496e-05
-9.18755e-05
2.73663e-05
-9.45186e-05
3.44352e-05
-8.74689e-05
4.27555e-05
-8.3856e-05
5.19742e-05
-8.35408e-05
6.14738e-05
-8.43943e-05
7.09788e-05
-8.53397e-05
8.05764e-05
-8.61304e-05
9.0642e-05
-8.67697e-05
0.000102265
-8.79296e-05
0.000117281
-9.00017e-05
0.000137587
-9.38217e-05
0.000167353
-0.000103717
0.000196064
-9.99022e-05
0.00022426
-9.5154e-05
0.000246069
-7.66928e-05
0.00026167
-5.00102e-05
0.000264002
-7.1212e-06
0.00026523
2.84179e-05
0.000266667
5.45199e-05
0.000271216
7.37711e-05
8.69675e-05
0.000280517
1.16766e-05
-5.77101e-05
2.00318e-05
-0.000100231
2.54354e-05
-9.99222e-05
3.17336e-05
-9.37671e-05
3.95103e-05
-9.16327e-05
4.79506e-05
-9.19811e-05
5.67056e-05
-9.31493e-05
6.61875e-05
-9.48216e-05
7.76427e-05
-9.75857e-05
9.21854e-05
-0.000101312
0.000113271
-0.000109016
0.000142539
-0.000119269
0.000180852
-0.000132134
0.000228946
-0.000151812
0.000265636
-0.000136592
0.000289008
-0.000118526
0.000291015
-7.86993e-05
0.00028246
-4.14554e-05
0.000291052
-1.57132e-05
0.000301623
1.78468e-05
0.00029935
5.67934e-05
0.000289644
8.34769e-05
9.23634e-05
0.000284248
1.37806e-05
-7.14907e-05
2.03078e-05
-0.000106758
2.3274e-05
-0.000102888
2.91294e-05
-9.96224e-05
3.74521e-05
-9.99554e-05
4.7148e-05
-0.000101677
5.87624e-05
-0.000104764
7.42407e-05
-0.0001103
9.66077e-05
-0.000119953
0.00012625
-0.000130955
0.000177216
-0.000159982
0.000227179
-0.000169232
0.0002714
-0.000176355
0.000295357
-0.000175769
0.000309708
-0.000150943
0.000291018
-9.98368e-05
0.000262242
-4.99233e-05
0.000256169
-3.53817e-05
0.000296381
-5.59253e-05
0.00035348
-3.92525e-05
0.000387318
2.29553e-05
0.000380911
8.98846e-05
0.000121323
0.000351951
1.88332e-05
-9.03239e-05
2.40533e-05
-0.000111978
2.53062e-05
-0.000104141
3.33921e-05
-0.000107708
4.65248e-05
-0.000113088
6.26362e-05
-0.000117788
8.42696e-05
-0.000126397
0.000117798
-0.000143828
0.00015582
-0.000157975
0.000194357
-0.000169492
0.000228431
-0.000194056
0.000268962
-0.000209764
0.000301653
-0.000209046
0.000314681
-0.000188797
0.000308768
-0.000145029
0.000281827
-7.2896e-05
0.000253363
-2.14593e-05
0.000262066
-4.40842e-05
0.00028321
-7.70696e-05
0.000316931
-7.29729e-05
0.000364602
-2.47162e-05
0.000399676
5.48109e-05
0.000115809
0.00040519
2.56721e-05
-0.000115996
3.23868e-05
-0.000118693
4.02809e-05
-0.000112035
5.63375e-05
-0.000123765
7.73695e-05
-0.00013412
9.93473e-05
-0.000139766
0.000122296
-0.000149345
0.000143204
-0.000164737
0.000170354
-0.000185125
0.000206803
-0.000205941
0.000238307
-0.000225559
0.00026778
-0.000239237
0.000290911
-0.000232177
0.000300534
-0.00019842
0.000290341
-0.000134837
0.000262851
-4.54057e-05
0.000249747
-8.35529e-06
0.000254578
-4.89145e-05
0.000255479
-7.79708e-05
0.00025719
-7.46841e-05
0.000267635
-3.51611e-05
0.000295983
2.64623e-05
8.27002e-05
0.000329092
1.0817e-05
-0.000126813
2.8935e-05
-0.000136811
4.59467e-05
-0.000129047
5.77352e-05
-0.000135553
6.92494e-05
-0.000145634
8.49122e-05
-0.000155429
0.000103092
-0.000167525
0.000123646
-0.000185291
0.000148142
-0.000209621
0.000175536
-0.000233335
0.000201012
-0.000251035
0.000223599
-0.000261824
0.000237474
-0.000246052
0.000239363
-0.000200308
0.00022711
-0.000122584
0.000212398
-3.0694e-05
0.000220572
-1.65297e-05
0.00022215
-5.04925e-05
0.000214797
-7.06173e-05
0.000199702
-5.95886e-05
0.0001855
-2.09595e-05
0.00019182
2.01427e-05
4.90864e-05
0.000225433
1.46941e-06
-0.000128282
1.45567e-05
-0.000149898
3.13112e-05
-0.000145802
4.4493e-05
-0.000148735
5.55488e-05
-0.00015669
6.70363e-05
-0.000166916
8.01848e-05
-0.000180674
9.60154e-05
-0.000201121
0.000115089
-0.000228695
0.000133299
-0.000251544
0.000148204
-0.000265941
0.000158998
-0.000272617
0.000161571
-0.000248625
0.000153764
-0.000192501
0.000136681
-0.000105502
0.000146512
-4.05243e-05
0.000169333
-3.93512e-05
0.000175332
-5.64913e-05
0.000164219
-5.95038e-05
0.000142967
-3.83369e-05
0.000131593
-9.58619e-06
0.00014532
6.41601e-06
1.28024e-05
0.000181604
5.02626e-06
-0.000133308
1.58162e-05
-0.000160688
2.57225e-05
-0.000155708
3.49524e-05
-0.000157965
4.34738e-05
-0.000165212
5.15147e-05
-0.000174957
5.9743e-05
-0.000188902
6.88934e-05
-0.000210272
7.80392e-05
-0.000237841
8.49468e-05
-0.000258452
8.88172e-05
-0.000269811
8.59428e-05
-0.000269743
7.92193e-05
-0.000241901
6.6624e-05
-0.000179905
6.42019e-05
-0.00010308
9.07606e-05
-6.70831e-05
0.000113206
-6.17964e-05
0.000113986
-5.72709e-05
0.000101245
-4.67633e-05
9.60949e-05
-3.31869e-05
0.000112104
-2.55949e-05
0.000144827
-2.63071e-05
-2.96543e-05
0.000187283
8.60214e-06
-0.000141911
1.41346e-05
-0.000166221
2.01313e-05
-0.000161705
2.67044e-05
-0.000164538
3.25346e-05
-0.000171042
3.70891e-05
-0.000179511
4.01197e-05
-0.000191933
4.13075e-05
-0.000211459
3.9573e-05
-0.000236106
3.64459e-05
-0.000255325
3.06819e-05
-0.000264047
1.84897e-05
-0.000257551
4.57631e-06
-0.000227988
-5.25181e-07
-0.000174804
1.30995e-05
-0.000116704
3.69413e-05
-9.0925e-05
4.93135e-05
-7.41687e-05
4.72928e-05
-5.52502e-05
5.63597e-05
-5.58301e-05
8.02662e-05
-5.70934e-05
0.000114223
-5.9552e-05
0.000152821
-6.49051e-05
-7.1924e-05
0.000195091
8.44828e-06
-0.000150359
1.10934e-05
-0.000168866
1.53432e-05
-0.000165955
1.99324e-05
-0.000169128
2.33388e-05
-0.000174448
2.49458e-05
-0.000181118
2.3666e-05
-0.000190653
1.83378e-05
-0.000206131
8.54125e-06
-0.00022631
-3.4508e-06
-0.000243333
-1.78692e-05
-0.000249629
-3.51982e-05
-0.000240221
-5.09003e-05
-0.000212285
-5.39138e-05
-0.00017179
-3.86972e-05
-0.000131921
-2.27864e-05
-0.000106836
-8.03842e-06
-8.89166e-05
1.9308e-05
-8.25964e-05
5.09149e-05
-8.74369e-05
8.28486e-05
-8.90271e-05
0.000116246
-9.2949e-05
0.000151765
-0.000100424
-0.000111025
0.000190866
6.91679e-06
-0.000157276
8.43376e-06
-0.000170383
1.16012e-05
-0.000169122
1.45344e-05
-0.000172061
1.62666e-05
-0.00017618
1.6198e-05
-0.00018105
1.29934e-05
-0.000187448
4.97875e-06
-0.000198116
-8.62411e-06
-0.000212707
-2.61765e-05
-0.00022578
-4.55315e-05
-0.000230274
-6.38031e-05
-0.00022195
-7.64447e-05
-0.000199644
-7.70476e-05
-0.000171187
-6.33469e-05
-0.000145622
-4.05738e-05
-0.000129609
-9.08914e-06
-0.000120401
2.44896e-05
-0.000116175
5.26031e-05
-0.00011555
8.1348e-05
-0.000117772
0.000111638
-0.000123239
0.000143643
-0.000132429
-0.000146217
0.000178835
5.13496e-06
-0.000162411
6.24656e-06
-0.000171495
8.52948e-06
-0.000171405
1.03444e-05
-0.000173876
1.12322e-05
-0.000177068
1.07621e-05
-0.00018058
7.8219e-06
-0.000184508
5.3916e-07
-0.000190833
-1.19754e-05
-0.000200192
-2.8513e-05
-0.000209243
-4.57362e-05
-0.00021305
-5.95377e-05
-0.000208148
-6.46563e-05
-0.000194525
-5.87516e-05
-0.000177092
-4.27167e-05
-0.000161657
-2.10879e-05
-0.000151238
2.86544e-06
-0.000144354
2.65612e-05
-0.000139871
5.04958e-05
-0.000139485
7.64355e-05
-0.000143712
0.000103924
-0.000150727
0.000133079
-0.000161585
-0.000178417
0.000165279
3.5366e-06
-0.000165948
4.49273e-06
-0.000172451
6.07037e-06
-0.000172983
7.18288e-06
-0.000174988
7.63018e-06
-0.000177515
7.25354e-06
-0.000180203
5.58601e-06
-0.00018284
1.06942e-06
-0.000186317
-7.24126e-06
-0.000191882
-1.83648e-05
-0.000198119
-2.96682e-05
-0.000201747
-3.78769e-05
-0.000199939
-3.97466e-05
-0.000192655
-3.42775e-05
-0.000182561
-2.30335e-05
-0.000172901
-8.83905e-06
-0.000165432
7.22123e-06
-0.000160415
2.57621e-05
-0.000158412
4.67446e-05
-0.000160467
6.93588e-05
-0.000166326
9.35143e-05
-0.000174882
0.000119477
-0.000187548
-0.000207213
0.000148273
2.30389e-06
-0.000168252
3.08729e-06
-0.000173234
4.09301e-06
-0.000173989
4.73219e-06
-0.000175627
4.879e-06
-0.000177662
4.5385e-06
-0.000179862
3.69496e-06
-0.000181996
1.66478e-06
-0.000184287
-2.55942e-06
-0.000187658
-8.80543e-06
-0.000191873
-1.56204e-05
-0.000194932
-2.08733e-05
-0.000194686
-2.26578e-05
-0.000190871
-2.01326e-05
-0.000185086
-1.36454e-05
-0.000179388
-4.03316e-06
-0.000175044
8.4024e-06
-0.00017285
2.37253e-05
-0.000173735
4.11972e-05
-0.000177939
6.01752e-05
-0.000185304
8.06781e-05
-0.000195385
0.000102717
-0.000209587
-0.000231036
0.000126541
1.4041e-06
-0.000169656
1.93168e-06
-0.000173762
2.47291e-06
-0.00017453
2.71983e-06
-0.000175874
2.59748e-06
-0.00017754
2.16394e-06
-0.000179429
1.47967e-06
-0.000181312
4.3695e-07
-0.000183244
-1.67131e-06
-0.000185549
-5.25233e-06
-0.000188292
-9.65887e-06
-0.000190525
-1.33971e-05
-0.000190948
-1.50048e-05
-0.000189263
-1.36965e-05
-0.000186394
-9.36917e-06
-0.000183715
-2.12749e-06
-0.000182286
7.86977e-06
-0.000182848
1.9991e-05
-0.000185856
3.39258e-05
-0.000191874
4.9245e-05
-0.000200623
6.60628e-05
-0.000212203
8.40733e-05
-0.000227597
-0.000250072
0.000103109
7.39323e-07
-0.000170395
9.81079e-07
-0.000174004
1.14579e-06
-0.000174695
1.07247e-06
-0.000175801
7.05458e-07
-0.000177173
3.16869e-08
-0.000178755
-8.27645e-07
-0.000180453
-1.86751e-06
-0.000182204
-3.3908e-06
-0.000184026
-5.74327e-06
-0.00018594
-8.65131e-06
-0.000187617
-1.11739e-05
-0.000188426
-1.22958e-05
-0.000188141
-1.13321e-05
-0.000187358
-8.01958e-06
-0.000187027
-2.43836e-06
-0.000187867
5.10743e-06
-0.000190393
1.43591e-05
-0.000195107
2.49998e-05
-0.000202515
3.69206e-05
-0.000212544
4.99674e-05
-0.00022525
6.39946e-05
-0.000241624
-0.000264741
7.86642e-05
2.46298e-07
-0.000170641
2.09923e-07
-0.000173967
5.50489e-08
-0.00017454
-2.84969e-07
-0.000175461
-8.54193e-07
-0.000176603
-1.68275e-06
-0.000177926
-2.7471e-06
-0.000179388
-4.00445e-06
-0.000180947
-5.48869e-06
-0.000182542
-7.3051e-06
-0.000184124
-9.33738e-06
-0.000185585
-1.10513e-05
-0.000186712
-1.17531e-05
-0.00018744
-1.097e-05
-0.000188141
-8.56975e-06
-0.000189428
-4.63075e-06
-0.000191806
6.9781e-07
-0.000195722
7.28706e-06
-0.000201697
1.48694e-05
-0.000210097
2.33996e-05
-0.000221074
3.27375e-05
-0.000234587
4.25757e-05
-0.000251462
-0.000274785
5.2619e-05
-1.20646e-07
-0.000170521
-4.28662e-07
-0.000173659
-8.45346e-07
-0.000174123
-1.41223e-06
-0.000174894
-2.15762e-06
-0.000175858
-3.10319e-06
-0.000176981
-4.25713e-06
-0.000178235
-5.60329e-06
-0.000179601
-7.10144e-06
-0.000181044
-8.71242e-06
-0.000182513
-1.03353e-05
-0.000183963
-1.16833e-05
-0.000185364
-1.23458e-05
-0.000186777
-1.20291e-05
-0.000188458
-1.06657e-05
-0.000190791
-8.30564e-06
-0.000194166
-5.02574e-06
-0.000199002
-9.4339e-07
-0.000205779
3.83795e-06
-0.000214878
9.16546e-06
-0.000226401
1.47959e-05
-0.000240218
2.05626e-05
-0.000257229
-0.000280119
2.58969e-05
-4.06428e-07
-0.000170114
-9.59926e-07
-0.000173106
-1.6002e-06
-0.000173483
-2.3646e-06
-0.00017413
-3.27329e-06
-0.000174949
-4.33717e-06
-0.000175917
-5.55969e-06
-0.000177012
-6.93846e-06
-0.000178222
-8.44821e-06
-0.000179534
-1.00264e-05
-0.000180935
-1.15661e-05
-0.000182423
-1.28952e-05
-0.000184035
-1.38022e-05
-0.000185871
-1.41342e-05
-0.000188126
-1.38491e-05
-0.000191076
-1.2973e-05
-0.000195042
-1.15744e-05
-0.0002004
-9.779e-06
-0.000207575
-7.73471e-06
-0.000216923
-5.60627e-06
-0.00022853
-3.50755e-06
-0.000242317
-1.68956e-06
-0.000259047
-0.000281105
-7.03888e-07
-6.4073e-07
-0.000169473
-1.40443e-06
-0.000172342
-2.2388e-06
-0.000172648
-3.17772e-06
-0.000173191
-4.24003e-06
-0.000173887
-5.43504e-06
-0.000174722
-6.76282e-06
-0.000175685
-8.21786e-06
-0.000176767
-9.78415e-06
-0.000177968
-1.142e-05
-0.000179299
-1.30522e-05
-0.000180791
-1.45817e-05
-0.000182506
-1.59033e-05
-0.000184549
-1.6945e-05
-0.000187084
-1.7694e-05
-0.000190327
-1.81918e-05
-0.000194545
-1.85321e-05
-0.00020006
-1.88623e-05
-0.000207244
-1.93566e-05
-0.000216428
-2.01732e-05
-0.000227713
-2.14592e-05
-0.000241031
-2.34853e-05
-0.000257021
-0.000277883
-2.67073e-05
-8.36031e-07
-0.000168637
-1.77748e-06
-0.000171401
-2.77972e-06
-0.000171646
-3.87306e-06
-0.000172098
-5.07711e-06
-0.000172683
-6.40318e-06
-0.000173396
-7.855e-06
-0.000174233
-9.42789e-06
-0.000175194
-1.11095e-05
-0.000176286
-1.28792e-05
-0.000177529
-1.47043e-05
-0.000178966
-1.65398e-05
-0.00018067
-1.83424e-05
-0.000182747
-2.00935e-05
-0.000185334
-2.18168e-05
-0.000188604
-2.35846e-05
-0.000192777
-2.55228e-05
-0.000198122
-2.78065e-05
-0.000204961
-3.06416e-05
-0.000213593
-3.42171e-05
-0.000224138
-3.87239e-05
-0.000236524
-4.44926e-05
-0.000251252
-0.000270388
-5.1988e-05
-9.97728e-07
-0.00016764
-2.08842e-06
-0.00017031
-3.23415e-06
-0.000170501
-4.46295e-06
-0.000170869
-5.79538e-06
-0.000171351
-7.24482e-06
-0.000171947
-8.82023e-06
-0.000172658
-1.05253e-05
-0.000173489
-1.23579e-05
-0.000174454
-1.43117e-05
-0.000175576
-1.63798e-05
-0.000176898
-1.85576e-05
-0.000178493
-2.0849e-05
-0.000180456
-2.3277e-05
-0.000182906
-2.58984e-05
-0.000185983
-2.88154e-05
-0.00018986
-3.21821e-05
-0.000194756
-3.62066e-05
-0.000200936
-4.11376e-05
-0.000208662
-4.72265e-05
-0.000218049
-5.47436e-05
-0.000229006
-6.41476e-05
-0.000241848
-0.000258387
-7.6149e-05
-1.12857e-06
-0.000166511
-2.34238e-06
-0.000169096
-3.60809e-06
-0.000169235
-4.95308e-06
-0.000169524
-6.39886e-06
-0.000169905
-7.96186e-06
-0.000170384
-9.6561e-06
-0.000170964
-1.14934e-05
-0.000171652
-1.34833e-05
-0.000172464
-1.56347e-05
-0.000173424
-1.79595e-05
-0.000174574
-2.04796e-05
-0.000175973
-2.32315e-05
-0.000177704
-2.62718e-05
-0.000179865
-2.96857e-05
-0.000182569
-3.35993e-05
-0.000185946
-3.81901e-05
-0.000190165
-4.36966e-05
-0.00019543
-5.04083e-05
-0.000201951
-5.86417e-05
-0.000209815
-6.87539e-05
-0.000218894
-8.13377e-05
-0.000229265
-0.0002423
-9.74248e-05
-1.23038e-06
-0.000165281
-2.5421e-06
-0.000167785
-3.90408e-06
-0.000167873
-5.34446e-06
-0.000168084
-6.88539e-06
-0.000168364
-8.54706e-06
-0.000168723
-1.03485e-05
-0.000169162
-1.23081e-05
-0.000169692
-1.44452e-05
-0.000170327
-1.67817e-05
-0.000171088
-1.9346e-05
-0.000172009
-2.21782e-05
-0.00017314
-2.53358e-05
-0.000174546
-2.88983e-05
-0.000176303
-3.29726e-05
-0.000178494
-3.77034e-05
-0.000181216
-4.32854e-05
-0.000184583
-4.99753e-05
-0.00018874
-5.80932e-05
-0.000193833
-6.79964e-05
-0.000199912
-8.01005e-05
-0.00020679
-9.50525e-05
-0.000214313
-0.000223311
-0.000114041
-1.30499e-06
-0.000163976
-2.68928e-06
-0.0001664
-4.12305e-06
-0.000166439
-5.63581e-06
-0.000166571
-7.25011e-06
-0.00016675
-8.9895e-06
-0.000166983
-1.08772e-05
-0.000167275
-1.29379e-05
-0.000167632
-1.51989e-05
-0.000168066
-1.76919e-05
-0.000168595
-2.04572e-05
-0.000169244
-2.3548e-05
-0.00017005
-2.70351e-05
-0.000171059
-3.10115e-05
-0.000172326
-3.55978e-05
-0.000173908
-4.09494e-05
-0.000175864
-4.72689e-05
-0.000178263
-5.48188e-05
-0.00018119
-6.39257e-05
-0.000184726
-7.49692e-05
-0.000188868
-8.8375e-05
-0.000193384
-0.000104771
-0.000197917
-0.000202779
-0.000125304
-1.35412e-06
-0.000162622
-2.78515e-06
-0.000164969
-4.26519e-06
-0.000164959
-5.82507e-06
-0.000165011
-7.4878e-06
-0.000165087
-9.27952e-06
-0.000165192
-1.12268e-05
-0.000165327
-1.33591e-05
-0.0001655
-1.57098e-05
-0.000165716
-1.83176e-05
-0.000165987
-2.12309e-05
-0.00016633
-2.45111e-05
-0.000166769
-2.82366e-05
-0.000167333
-3.25072e-05
-0.000168056
-3.74483e-05
-0.000168967
-4.32178e-05
-0.000170095
-5.00169e-05
-0.000171464
-5.80997e-05
-0.000173108
-6.77808e-05
-0.000175045
-7.94253e-05
-0.000177223
-9.34371e-05
-0.000179373
-0.000110355
-0.000180999
-0.000181993
-0.000131142
-1.3789e-06
-0.000161243
-2.83043e-06
-0.000163517
-4.33029e-06
-0.000163459
-5.91027e-06
-0.000163431
-7.59388e-06
-0.000163403
-9.40884e-06
-0.000163377
-1.13842e-05
-0.000163352
-1.35526e-05
-0.000163331
-1.59514e-05
-0.000163317
-1.86239e-05
-0.000163314
-2.16231e-05
-0.000163331
-2.50147e-05
-0.000163378
-2.888e-05
-0.000163468
-3.33201e-05
-0.000163616
-3.84587e-05
-0.000163829
-4.44478e-05
-0.000164105
-5.14776e-05
-0.000164434
-5.97833e-05
-0.000164802
-6.96504e-05
-0.000165178
-8.14077e-05
-0.000165466
-9.54023e-05
-0.000165378
-0.000112051
-0.00016435
-0.000161992
-0.000132051
-1.37925e-06
-0.000159864
-2.82505e-06
-0.000162071
-4.31783e-06
-0.000161966
-5.89002e-06
-0.000161859
-7.56532e-06
-0.000161728
-9.37205e-06
-0.00016157
-1.13406e-05
-0.000161383
-1.35058e-05
-0.000161166
-1.59067e-05
-0.000160916
-1.85891e-05
-0.000160632
-2.16078e-05
-0.000160312
-2.5029e-05
-0.000159957
-2.89334e-05
-0.000159564
-3.34192e-05
-0.00015913
-3.86035e-05
-0.000158645
-4.46267e-05
-0.000158082
-5.16595e-05
-0.000157402
-5.99104e-05
-0.000156551
-6.96253e-05
-0.000155463
-8.10818e-05
-0.00015401
-9.45571e-05
-0.000151903
-0.00011034
-0.000148568
-0.000143462
-0.00012887
-1.35299e-06
-0.00015851
-2.76718e-06
-0.000160657
-4.22637e-06
-0.000160507
-5.76312e-06
-0.000160322
-7.40068e-06
-0.000160091
-9.16707e-06
-0.000159803
-1.10931e-05
-0.000159457
-1.32139e-05
-0.000159045
-1.55691e-05
-0.000158561
-1.82048e-05
-0.000157996
-2.11753e-05
-0.000157342
-2.45449e-05
-0.000156587
-2.83905e-05
-0.000155718
-3.28043e-05
-0.000154716
-3.78936e-05
-0.000153555
-4.37834e-05
-0.000152192
-5.06207e-05
-0.000150564
-5.85817e-05
-0.00014859
-6.78711e-05
-0.000146173
-7.8707e-05
-0.000143174
-9.12953e-05
-0.000139315
-0.000105807
-0.000134056
-0.000126797
-0.000122472
-1.29478e-06
-0.000157216
-2.65228e-06
-0.0001593
-4.05255e-06
-0.000159106
-5.5272e-06
-0.000158847
-7.09857e-06
-0.000158519
-8.79348e-06
-0.000158108
-1.0642e-05
-0.000157609
-1.26783e-05
-0.000157009
-1.49409e-05
-0.000156298
-1.74747e-05
-0.000155462
-2.03317e-05
-0.000154485
-2.35723e-05
-0.000153347
-2.72677e-05
-0.000152023
-3.15014e-05
-0.000150483
-3.63694e-05
-0.000148687
-4.19799e-05
-0.000146582
-4.84552e-05
-0.000144089
-5.5937e-05
-0.000141108
-6.45869e-05
-0.000137524
-7.45712e-05
-0.000133189
-8.60284e-05
-0.000127857
-9.90366e-05
-0.000121048
-0.000112161
-0.000113672
-1.19657e-06
-0.000156019
-2.47341e-06
-0.000158023
-3.79068e-06
-0.000157789
-5.17735e-06
-0.00015746
-6.65516e-06
-0.000157041
-8.24898e-06
-0.000156515
-9.98733e-06
-0.00015587
-1.19018e-05
-0.000155095
-1.40287e-05
-0.000154171
-1.641e-05
-0.000153081
-1.90936e-05
-0.000151802
-2.21349e-05
-0.000150305
-2.5598e-05
-0.000148559
-2.95564e-05
-0.000146524
-3.40934e-05
-0.00014415
-3.93012e-05
-0.000141374
-4.52788e-05
-0.000138112
-5.2135e-05
-0.000134252
-5.99919e-05
-0.000129667
-6.89699e-05
-0.000124212
-7.91541e-05
-0.000117673
-9.05568e-05
-0.000109645
-9.9573e-05
-0.000103145
-1.0521e-06
-0.000154967
-2.22546e-06
-0.000156849
-3.43636e-06
-0.000156578
-4.70896e-06
-0.000156188
-6.06572e-06
-0.000155685
-7.52941e-06
-0.000155051
-9.12637e-06
-0.000154273
-1.0885e-05
-0.000153336
-1.2838e-05
-0.000152218
-1.50225e-05
-0.000150897
-1.74811e-05
-0.000149343
-2.02624e-05
-0.000147524
-2.34225e-05
-0.000145399
-2.70249e-05
-0.000142922
-3.11401e-05
-0.000140035
-3.58445e-05
-0.00013667
-4.12176e-05
-0.000132739
-4.734e-05
-0.00012813
-5.42976e-05
-0.000122709
-6.21754e-05
-0.000116334
-7.10193e-05
-0.000108829
-8.08e-05
-9.98648e-05
-8.89544e-05
-9.14183e-05
-8.65065e-07
-0.000154102
-1.91464e-06
-0.0001558
-2.99738e-06
-0.000155496
-4.13073e-06
-0.000155055
-5.33881e-06
-0.000154476
-6.64298e-06
-0.000153747
-8.06735e-06
-0.000152849
-9.63721e-06
-0.000151766
-1.13809e-05
-0.000150475
-1.33299e-05
-0.000148948
-1.55197e-05
-0.000147153
-1.79911e-05
-0.000145052
-2.07906e-05
-0.0001426
-2.39709e-05
-0.000139742
-2.759e-05
-0.000136416
-3.17105e-05
-0.000132549
-3.63959e-05
-0.000128053