/*--------------------------------*- C++ -*----------------------------------*\
  =========                 |
  \\      /  F ield         | OpenFOAM: The Open Source CFD Toolbox
   \\    /   O peration     | Website:  https://openfoam.org
    \\  /    A nd           | Version:  13
     \\/     M anipulation  |
\*---------------------------------------------------------------------------*/
FoamFile
{
    format      ascii;
    class       volScalarField;
    location    "0.25";
    object      rho;
}
// * * * * * * * * * * * * * * * * * * * * * * * * * * * * * * * * * * * * * //

dimensions      [1 -3 0 0 0 0 0];

internalField   nonuniform List<scalar> 
2268
(
1000
1000
1000
1000
1000
1000
1000
1000
1000
1000
1000
1000
1000
1000
1000
1000
1000
1000
1000
1000
962.84
813.611
813.357
1000
1000
1000
1000
1000
1000
1000
1000
1000
1000
1000
1000
1000
1000
1000
1000
1000
1000
1000
1000
996.216
969.344
884.53
1000
1000
1000
1000
1000
1000
1000
1000
1000
1000
1000
1000
1000
1000
1000
1000
1000
1000
1000
1000
1000
999.944
968.954
1000
1000
1000
1000
1000
1000
1000
1000
1000
1000
1000
1000
1000
1000
1000
1000
1000
1000
1000
1000
1000
999.993
966.343
1000
1000
1000
1000
1000
1000
1000
1000
1000
1000
1000
1000
1000
1000
1000
1000
1000
1000
1000
1000
1000
999.998
966.127
1000
1000
1000
1000
1000
1000
1000
1000
1000
1000
1000
1000
1000
1000
1000
1000
1000
1000
1000
1000
1000
1000
966.166
1000
1000
1000
1000
1000
1000
1000
1000
1000
1000
1000
1000
1000
1000
1000
1000
1000
1000
1000
1000
1000
1000
968.367
1000
1000
1000
1000
1000
1000
1000
1000
1000
1000
1000
1000
1000
1000
1000
1000
1000
1000
1000
1000
1000
1000
993.992
1
1
1
1
1
1
1
1
1
1
1
1
1
1
1
1
1
1
1
1
1
1
1
1
1
1
1
1
1
1
1
1
1
1
1
1
1
1
1
1
1
1
1
1
1
1
1
1
1
1
1
1
1
1
1
1
1
1
1
1
1
1
1
1
1
1
1
1
1
1
1
1
1
1
1
1
1.00011
1.00007
1
1
1
1
1
1
1
1
1
1
1
1
1
1
1
1
1
1.0023
1.00164
1.00007
1
1
1
1
1
1
1
1
1
1
1
1
1
1
1
1
1.03147
1.03434
1.00194
1
1
1
1
1
1
1
1
1
1
1
1
1
1
1
1
1.14767
1.13554
1.00517
1.00002
1
1
1
1
1
1
1
1
1
1
1
1
1
1
1
1000
1000
1000
1000
1000
1000
1000
1000
1000
1000
1000
1000
1000
1000
1000
1000
1000
1000
1000
1000
1000
1000
999.009
1000
1000
1000
1000
1000
1000
1000
1000
1000
1000
1000
1000
1000
999.999
999.996
999.999
999.999
999.98
999.999
1000
1000
1000
999.575
1000
1000
1000
1000
1000
1000
1000
1000
1000
999.999
999.998
999.996
999.993
999.984
999.938
999.97
999.973
999.893
999.998
999.995
1000
1000
999.999
1000
1000
999.999
999.999
999.999
999.999
999.998
999.996
999.992
999.985
999.965
999.921
999.683
999.629
999.246
988.362
946.033
891.547
854.984
893.639
999.993
999.999
999.963
1000
999.988
999.983
999.985
999.983
999.977
999.964
999.934
999.881
999.727
999.443
998.821
992.371
915.481
719.378
453.008
242.081
139.387
80.3333
101.893
174.604
337.119
576.627
999.988
999.814
999.8
999.809
999.775
999.691
999.499
999.075
998.25
989.838
928.971
762.928
493.707
159
1.2549
1.10236
1.06835
1.07696
1.16186
1.79798
1.66554
2.40861
16.617
999.74
997.912
997.849
997.799
997.297
989.193
955.118
876.232
728.926
479.315
237.024
6.70728
1.06354
1.06782
1.06256
1.0599
1.05946
1.06929
1.15111
1.2878
1.37951
1.62376
1.55673
954.118
757.854
746.272
711.631
625.182
476.268
312.973
162.16
23.8197
1.00201
1.02528
1.00646
1.03549
1.06163
1.05991
1.05961
1.05983
1.05983
2.69443
3.01963
2.96341
1.52455
1.12202
299.204
83.9449
67.2373
45.4491
7.45184
1
1
1
1
1
1.00013
1.00118
1.01738
1.12033
1.06864
1.0599
1.05962
2.0661
3.01963
3.01963
3.01963
1.46455
1.02054
1
1
1
1
1
1
1
1
1
1
1.00009
1.00449
1.36851
1.4887
1.24001
1.06378
1.20463
2.9965
3.01147
3.01963
1.62813
1.02021
1.00215
1
1
1
1
1
1
1
1
1
1
1.00044
1.38374
1.48909
1.48796
1.25522
1.0807
2.44108
2.98964
3.00331
1.75005
1.00448
1.0006
1.0004
1
1
1
1
1
1
1
1
1
1
1.00851
1.45018
1.48386
1.38957
1.26791
2.37333
2.92697
2.95667
1.78369
1.00049
1.00007
1.00001
1.00001
1
1
1
1
1
1
1
1
1.00002
1.00001
1.03232
1.04364
1.38144
1.47495
1.90849
2.75709
2.72672
1.36152
1.00009
1.00001
1
1
1.00001
1
1
1
1
1
1
1
1
1.00004
1.00017
1.00002
1.00002
1.00045
1.49205
2.05269
2.05252
1
1
1
1
1
1
1.00003
1
1
1
1
1
1
1
1
1.00002
1.00016
1.00001
1
1.00695
1.05095
1.02
1
1
1
1
1
1
1
1.00001
1
1
1
1
1
1
1
1
1
1
1.00001
1
1
1
1
1
1
1
1
1
1
1
1.00001
1
1
1
1
1
1
1
1
1
1.00002
1.00004
1.00002
1
1
1
1
1
1
1
1
1
1
1.00001
1
1
1
1
1
1
1
1
1
1.00002
1.00004
1.00004
1
1
1
1
1
1
1
1
1
1
1.00001
1
1
1
1
1
1
1
1
1
1
1.00002
1.00001
1
1
1
1
1
1
1
1
1
1
1.00001
1
1
1
1
1
1
1
1
1
1
1
1
1
1
1
1
1
1
1
1
1
1
1.00001
1
1
1
1
1
1
1
1
1
1
1
1
1
1
1
1
1
1
1
1
1
1
1.00001
1
1
1
1
1
1
1
1
1
1
1
1
1
1
1
1
1
1
1
1
1
1
1.00001
1
1
1
1
1
1
1
1
1
1
1
1
1
1
1
1
1
1
1
1
1
1
1
1
1
1
1
1
1
1
1
1
1
1
1
1
1
1
1
1
1
1
1
1
1
1
1
1
1
1
1
1
1
1
1
1
1
1
1
1
1
1
1
1
1
1
1
1
1
1
1
1
1
1
1
1
1
1
1
1
1
1
1
1
1
1
1
1
1
1
1
1
1
1
1
1
1
1
1
1
1
1
1
1
1
1
1
1
1
1
1
1
1
1
1
1
1
1
1
1
1
1
1
1
1
1
1
1
1
1
1
1
1
1
1
1
1
1
1
1
1
1
1
1
1
1
1
1
1
1
1
1
1
1
1
1
1
1
1
1
1
1
1
1
1
1
1
1
1
1
1
1
1
1
1
1
1
1
1
1
1
1
1
1
1
1
1
1
1
1
1
1
1
1
1
1
1
1
1
1
1
1
1
1
1
1
1
1
1
1
1
1
1
1
1
1
1
1
1
1
1
1
1
1
1
1
1
1
1
1
1
1
1
1
1
1
1
1
1
1
1
1
1
1
1
1
1
1
1
1
1
1
1
1
1
1
1
1
1
1
1
1
1
1
1
1
1
1
1
1
1
1
1
1
1
1
1
1
1
1
1
1
1
1
1
1
1
1
1
1
1
1
1
1
1
1
1
1
1
1
1
1
1
1
1
1
1
1
1
1
1
1
1
1
1
1
1
1
1
1
1
1
1
1
1
1
1
1
1
1
1
1
1
1
1
1
1
1
1
1
1
1
1
1
1
1
1
1
1
1
1
1
1
1
1
1
1
1
1
1
1
1
1
1
1
1
1
1
1
1
1
1
1
1
1
1
1
1
1
1
1
1
1
1
1
1
1
1
1
1
1
1
1
1
1
1
1
1
1
1
1
1
1
1
1
1
1
1
1
1
1
1
1
1
1
1
1
1
1
1
1
1
1
1
1
1
1
1
1
1
1
1
1
1
1
1
1
1
1
1
1
1
1
1
1
1
1
1
1
1
1
1
1
1
1
1
1
1
1
1
999.403
999.832
577.45
17.4162
999.893
999.902
971.869
924.739
999.963
999.918
999.186
999.124
999.918
999.903
999.841
999.6
804.166
998.67
999.599
999.014
47.9354
112.217
192.466
285.563
1.94433
4.42619
5.67876
2.6662
1.12479
1.19191
1.21978
1.89878
1.01698
1.02081
1.02152
1.02411
1.00239
1.00201
1.00178
1.00176
1.00106
1.00029
1.00009
1.00009
1.00002
1.00002
1.00002
1.00003
1.00002
1.00002
1.00002
1.00003
1.00005
1.00005
1.00002
1.00002
1.00005
1.00004
1.00002
1.00003
1.00001
1.00001
1.00001
1.00002
1.00001
1.00001
1.00002
1.00005
1.00001
1.00013
1.00005
1.00015
1.00001
1.00022
1.00034
1.00043
1.00003
1.00024
1.00129
1.00347
1.00005
1.00035
1.00154
1.00485
1.00006
1.00037
1.00138
1.0054
1.00004
1.00026
1.00103
1.00362
1.00002
1.00017
1.0007
1.0024
1.00002
1.00011
1.00048
1.00176
1.00001
1.00008
1.00035
1.00135
1.00001
1.00005
1.00024
1.00097
1
1.00003
1.00011
1.00046
1
1.00001
1.00004
1.00016
1
1
1.00001
1.00002
1
1
1
1
1
1
1
1
1
1
1
1
1
1
1
1
1
1
1
1
1
1
1
1
1
1
1
1
1
1
1
1
1
1
1
1
1
1
1
1
1
1
1
1
1
1
1
1
28.8163
1.10792
1.00441
1.00066
1.00003
1
1
1
1
1
1
1
1
1
1
1
1
1
1
572.418
1.55353
1.15955
1.01466
1.00027
1.00002
1
1
1
1
1
1
1
1
1
1
1
1
1
996.678
830.687
121.698
1.13015
1.00501
1.00037
1.00003
1.00001
1
1
1
1
1
1
1
1
1
1
1
999.015
996.854
896.516
244.583
1.3606
1.0163
1.00172
1.00036
1.00002
1
1
1
1
1
1
1
1
1
1
996.855
994.596
993.323
918.904
272.319
1.12767
1.06375
1.00677
1.00054
1.00004
1
1
1
1
1
1
1
1
1
595.599
993.313
985.391
971.764
855.131
202.946
2.08556
1.16198
1.01391
1.00102
1.00006
1
1
1
1
1
1
1
1
17.4006
125.361
693.43
959.976
922.191
621.57
73.6091
2.87245
1.20726
1.01766
1.00129
1.00007
1.00001
1
1
1
1
1
1
1.47807
1.72293
34.126
642.913
891.429
852.945
288.281
8.3449
2.00911
1.1193
1.01125
1.00086
1.00007
1
1
1
1
1
1
1.04311
1.07249
1.31046
112.351
762.525
796.761
520.529
50.5124
3.67156
1.3861
1.04509
1.00413
1.00038
1.00003
1
1
1
1
1
1.00294
1.00784
1.02469
1.30673
460.687
764.781
636.952
113.919
5.9499
1.80127
1.10739
1.0116
1.00115
1.00009
1.00001
1
1
1
1
1.00016
1.00079
1.00243
1.02433
159.86
691.996
646.023
217.243
8.30386
2.27644
1.18543
1.02252
1.00238
1.0002
1.00001
1
1
1
1
1.00004
1.00014
1.00043
1.00393
40.564
568.295
594.331
292.71
12.8098
2.59345
1.24393
1.03096
1.00355
1.00032
1.00002
1
1
1
1
1.0001
1.00015
1.00033
1.00054
7.18551
458.206
572.101
273.961
11.2928
2.59705
1.25021
1.03242
1.00361
1.00034
1.00003
1
1
1
1
1.00183
1.00276
1.00089
1.00092
6.79542
383.139
538.494
220.446
8.54475
2.4035
1.22145
1.02887
1.00302
1.00025
1.00002
1
1
1
1
1.00559
1.00856
1.00128
1.00126
17.0757
371.545
482.257
148.946
6.64867
2.02673
1.15949
1.02021
1.00248
1.00024
1.00002
1
1
1
1
1.00964
1.01238
1.00238
1.00164
75.0023
391.217
390.162
88.7214
4.79537
1.64609
1.09932
1.01559
1.00202
1.00021
1.00002
1
1
1
1
1.0295
1.01861
1.00359
1.00242
230.076
377.972
297.252
40.5124
3.24583
1.40476
1.07609
1.0118
1.00142
1.00014
1.00001
1
1
1
1
1.05939
1.02109
1.02526
53.8662
277.34
367.504
145.801
12.566
2.6002
1.31711
1.05517
1.00725
1.00081
1.00008
1.00001
1
1
1
1
1.05827
1.02661
21.3595
189.135
265.221
149.601
16.27
4.61005
1.98267
1.18514
1.02576
1.00315
1.00035
1.00003
1
1
1
1
1
1.01612
1.07428
1.07277
168.541
245.764
37.9152
5.17248
1.70316
1.15432
1.03098
1.00466
1.0007
1.0001
1.00001
1
1
1
1
1
1.01952
1.16188
1.06799
161.021
238.901
73.8576
2.95336
1.64171
1.03385
1.00429
1.00064
1.00009
1.00001
1
1
1
1
1
1
1.0194
1.15177
1.0654
78.0423
225.112
211.207
7.39282
1.10319
1.04906
1.00171
1.00024
1.00003
1
1
1
1
1
1
1
1.01234
1.03123
1.06197
2.43751
209.875
201.554
71.9702
1.60474
1.17691
1.00756
1.00048
1.00003
1
1
1
1
1
1
1
1.00764
1.04558
1.48806
1.49307
163.43
197.156
197.068
15.9991
1.29783
1.10027
1.00955
1.00072
1.00003
1
1
1
1
1
1
1.00605
1.02767
1.24815
2.35044
29.9544
197.068
191.372
100.434
4.76695
1.13921
1.01021
1.00046
1.00001
1
1
1
1
1
1
1.00482
1.01954
1.13547
2.54171
2.63515
115.644
181.889
125.857
7.40587
1.25036
1.02176
1.0012
1.00006
1
1
1
1
1
1
1.00339
1.01101
1.06381
1.96753
5.99667
12.394
49.7533
42.1823
9.72436
1.57336
1.05811
1.00391
1.00016
1
1
1
1
1
1
1.00168
1.00611
1.03536
1.28953
2.94144
4.24648
5.00414
4.08961
4.07557
1.42289
1.0369
1.00222
1.00009
1
1
1
1
1
1
1.00049
1.00362
1.01653
1.05692
1.81099
2.2738
1.94801
1.89456
1.17047
1.0193
1.00149
1.00006
1
1
1
1
1
1
1
1.00008
1.00051
1.0027
1.00952
1.1974
1.30167
1.18922
1.21166
1.05419
1.00543
1.00039
1.00002
1
1
1
1
1
1
1
1.00001
1.00006
1.00031
1.00171
1.03473
1.05336
1.03519
1.03929
1.01362
1.00134
1.00011
1
1
1
1
1
1
1
1
1
1.00001
1.00003
1.00017
1.00447
1.00755
1.00592
1.00667
1.0028
1.00029
1.00002
1
1
1
1
1
1
1
1
1
1
1
1.00002
1.00049
1.00095
1.00087
1.00103
1.00052
1.00006
1
1
1
1
1
1
1
1
1
1
1
1
1
1.00004
1.00011
1.00012
1.00015
1.00009
1.00001
1
1
1
1
1
1
1
1
1
1
1
1
1
1
1.00001
1.00002
1.00002
1.00001
1
1
1
1
1
1
1
1
1
1
1
1
1
1
1
1
1
1
1
1
1
1
1
1
1
1
1
1
1
1
1
1
1
1
1
1
1
1
1
1
1
1
1
1
1
1
1
1
1
1
1
1
1
1
1
1
1
1
1
1
1
1
1
1
1
1
1
1
1
1
1
1
1
1
1
1
1
1
1
1
1
1
1
1
1
1
1
1
1
1
1
1
1
1
1
1
1
1
1
1
1
1
1
1
1
1
1
1
1
1
1
1
1
1
1
1
1
1
1
1
1
1
1
1
1
1
1
1
1
1
1
1
1
1
1
1
1
1
1
1
1
1
1
)
;

boundaryField
{
    leftWall
    {
        type            calculated;
        value           nonuniform List<scalar> 
50
(
1000
1000
1000
1000
1000
1000
1000
1000
1000
1000
1000
1000
1000
999.988
999.74
954.118
299.204
1
1
1
1
1
1
1
1
1
1
1
1
1
1
1
1
1
1
1
1
1
1
1
1
1
1
1
1
1
1
1
1
1
)
;
    }
    rightWall
    {
        type            calculated;
        value           nonuniform List<scalar> 
50
(
1
1
1
1
1
1
1
1
1
1
1
1
1
1
1
1
1
1
1
1
1
1
1
1
1
1
1
1
1
1
1
1
1
1
1
1
1
1
1
1
1
1
1
1
1
1
1
1
1
1
)
;
    }
    lowerWall
    {
        type            calculated;
        value           nonuniform List<scalar> 
62
(
1000
1000
1000
1000
1000
1000
1000
1000
1000
1000
1000
1000
1000
1000
1000
1000
1000
1000
1000
1000
962.84
813.611
813.357
813.357
884.53
968.954
966.343
966.127
966.166
968.367
993.992
999.403
999.832
577.45
17.4162
1
1
1
1
1.00011
1.0023
1.03147
1.14767
1
1
1
1
1
1
1
1
1
1
1
1
1
1
1
1
1
1
1
)
;
    }
    atmosphere
    {
        type            calculated;
        value           nonuniform List<scalar> 
46
(
1
1
1
1
1
1
1
1
1
1
1
1
1
1
1
1
1
1
1
1
1
1
1
1
1
1
1
1
1
1
1
1
1
1
1
1
1
1
1
1
1
1
1
1
1
1
)
;
    }
    defaultFaces
    {
        type            empty;
    }
}


// ************************************************************************* //
