/*--------------------------------*- C++ -*----------------------------------*\
  =========                 |
  \\      /  F ield         | OpenFOAM: The Open Source CFD Toolbox
   \\    /   O peration     | Website:  https://openfoam.org
    \\  /    A nd           | Version:  13
     \\/     M anipulation  |
\*---------------------------------------------------------------------------*/
FoamFile
{
    format      ascii;
    class       volScalarField;
    location    "0.35";
    object      alpha.water;
}
// * * * * * * * * * * * * * * * * * * * * * * * * * * * * * * * * * * * * * //

dimensions      [];

internalField   nonuniform List<scalar> 
2268
(
1
1
1
1
1
1
1
1
1
1
1
1
1
1
1
1
1
1
1
0.990395
0.838309
0.838156
0.895632
1
1
1
1
1
1
1
1
1
1
1
1
1
1
1
1
1
1
1
1
0.944597
0.903609
0.998625
1
1
1
1
1
1
1
1
1
1
1
1
1
1
1
1
1
1
1
1
0.999997
0.99769
0.998606
1
1
1
1
1
1
1
1
1
1
1
1
1
1
1
1
1
1
1
1
1
0.999974
0.996761
1
1
1
1
1
1
1
1
1
1
1
1
1
1
1
1
1
1
1
1
1
1
0.996819
1
1
1
1
1
1
1
1
1
1
1
1
1
1
1
1
1
1
1
1
1
1
0.996935
1
1
1
1
1
1
1
1
1
1
1
1
1
1
1
1
1
1
1
1
1
1
0.996939
1
1
1
1
1
1
1
1
1
1
1
1
1
1
1
1
1
1
1
1
1
1
0.996946
3.64697e-09
3.13461e-09
9.55328e-10
4.28273e-11
3.90244e-13
8.98501e-15
3.7141e-16
1.7645e-17
9.57878e-19
5.61832e-20
3.23463e-21
1.74694e-22
8.69248e-24
5.09557e-25
3.13587e-26
1.72269e-27
9.67267e-29
1.41565e-30
9.7037e-31
3.65267e-09
2.82946e-08
6.94512e-10
6.92889e-10
1.78662e-13
1.7826e-13
2.41911e-14
1.25991e-15
5.75212e-17
3.15624e-18
1.87336e-19
1.04983e-20
5.49539e-22
1.18629e-23
2.42892e-24
9.25459e-26
2.2986e-27
1.61517e-28
1.63788e-30
1.23221e-08
6.28681e-07
2.55649e-07
1.90717e-13
1.85925e-13
4.90286e-13
1.65771e-13
2.08455e-14
1.28288e-15
6.7996e-17
3.2217e-18
9.96533e-20
3.56364e-21
1.55768e-21
2.73173e-22
1.57785e-23
4.27754e-25
3.23661e-26
2.34147e-28
1.10444e-06
7.47444e-06
2.43944e-08
2.42201e-08
1.90717e-13
3.57891e-12
9.34662e-13
1.23317e-13
1.40208e-14
1.97551e-15
1.98792e-16
8.8633e-18
4.02914e-19
1.68121e-19
2.49072e-20
1.36911e-21
5.56279e-23
3.27688e-24
2.20056e-26
0.00012241
0.000137405
5.66959e-06
4.61488e-13
2.80261e-13
1.56153e-11
2.27454e-12
4.91286e-13
2.0534e-13
1.09805e-13
2.33373e-14
9.10499e-16
4.77878e-17
1.31852e-17
1.67254e-18
9.99314e-20
4.26942e-21
2.38246e-22
1.4531e-24
0.00131126
0.00111566
8.57952e-05
5.65257e-12
1.03412e-11
9.46322e-11
1.07822e-11
2.22942e-12
5.62293e-12
3.03356e-12
6.5986e-13
8.16223e-15
3.27135e-15
9.04998e-16
1.02124e-16
5.88402e-18
3.22523e-19
3.04459e-20
8.43489e-23
0.00138902
0.000887449
7.08273e-06
4.83645e-12
4.21347e-12
3.56588e-12
2.98871e-12
2.27045e-12
2.43445e-10
1.03912e-10
1.32628e-11
1.43951e-13
6.06506e-14
4.60387e-14
8.13225e-15
4.02437e-16
1.83137e-17
7.37923e-19
3.82521e-21
8.20398e-05
5.10094e-05
1.46861e-05
2.82635e-08
1.20867e-08
1.56606e-08
5.79618e-08
3.46536e-08
6.23801e-09
2.51443e-09
3.66623e-10
7.78731e-12
2.71001e-12
1.10867e-12
1.56312e-13
5.5244e-15
2.02241e-16
2.33277e-18
3.67121e-20
1
1
1
1
1
1
1
1
1
1
1
1
1
1
1
1
1
1
1
1
1
1
0.998627
1
1
0.999998
0.999998
0.999998
0.999999
0.999999
0.999999
0.999999
0.999999
0.999999
0.999999
0.999998
0.999996
0.999994
0.999993
0.999995
0.999991
0.999993
1
1
1
1
1
0.99999
0.999922
0.999916
0.999928
0.999935
0.999945
0.999945
0.999939
0.999926
0.999917
0.9999
0.99991
0.99983
0.999658
0.999513
0.999998
1
1
1
1
1
1
0.999994
0.987194
0.904213
0.901139
0.898323
0.881864
0.85905
0.833631
0.803255
0.766891
0.726476
0.686292
0.650291
0.61994
0.609765
0.628578
0.673779
0.749345
0.846641
0.966379
1
1
0.999999
0.855067
0.450085
0.19438
0.194758
0.186931
0.158235
0.128823
0.103144
0.0779767
0.0530565
0.0304214
0.0119141
1.8303e-09
1.06176e-09
1.01217e-09
1.18497e-07
0.00405702
0.0242526
0.070755
0.159214
0.324207
0.564584
0.795254
0.0917305
8.55122e-23
2.00381e-18
9.59366e-17
3.06167e-15
3.77545e-14
2.47674e-13
4.22381e-13
4.59656e-13
5.06067e-13
5.05716e-13
8.73012e-11
6.427e-10
1.01217e-09
1.01217e-09
1.09865e-09
1.18497e-07
1.21146e-05
0.000108048
0.000527431
0.00043365
0.0126933
0.0781854
-7.98589e-20
2.85861e-37
3.70409e-20
2.04008e-18
9.59552e-17
3.06167e-15
9.98527e-13
9.76516e-13
9.69963e-11
5.601e-13
2.10951e-11
1.64062e-07
7.65829e-08
3.95825e-09
1.01217e-09
5.17773e-06
0.00021654
0.00048803
0.000567036
0.000496198
0.00024362
0.00012399
0.000195867
-3.24272e-20
2.67255e-19
6.65435e-17
6.16822e-15
2.09633e-13
2.35192e-12
1.17478e-11
6.83377e-12
2.80179e-10
5.93056e-13
2.33338e-07
6.47598e-07
4.56459e-07
7.27867e-09
1.10332e-09
0.000323104
0.00104916
0.00104949
0.00104916
0.00104924
0.000312704
8.21685e-05
8.48609e-05
0
9.38545e-19
1.16901e-16
1.69879e-14
6.49325e-13
6.75406e-12
1.91526e-11
1.12277e-11
2.84595e-10
9.48411e-13
5.98168e-07
6.47961e-07
4.61294e-07
1.02436e-08
4.62285e-09
0.000485715
0.000995512
0.00104916
0.00104966
0.000377089
8.25178e-05
8.05315e-05
8.05496e-05
-1.18637e-20
7.86928e-19
1.12735e-16
1.98865e-14
7.89566e-13
7.98829e-12
1.94913e-11
1.21064e-11
1.838e-10
1.79181e-12
1.98076e-07
5.33101e-07
6.68107e-08
1.59623e-07
1.16464e-05
7.49732e-10
6.12899e-05
0.000576672
0.00103601
0.000650426
9.59823e-05
8.05496e-05
8.05335e-05
-6.67534e-21
3.88237e-19
7.10352e-17
1.87866e-14
7.61677e-13
5.56554e-12
1.78031e-11
1.20442e-11
2.3503e-11
3.50839e-10
3.51102e-10
3.57154e-10
4.1114e-10
6.18332e-07
1.24417e-07
1.12467e-11
2.6842e-12
2.68422e-12
0.000127534
0.000649486
0.000418829
0.000306236
0.00102146
6.68793e-22
1.30461e-19
2.66113e-17
1.14934e-14
4.69347e-13
2.53896e-12
8.4154e-12
9.12906e-12
3.22956e-12
1.14223e-09
1.4077e-09
1.49711e-09
4.30836e-10
3.94505e-07
1.93549e-07
8.85518e-12
2.70433e-12
2.49875e-12
2.18695e-12
0.000182751
0.000166914
6.54451e-05
4.46682e-05
2.81105e-21
3.17801e-20
6.99616e-18
4.24156e-15
1.65931e-13
8.74846e-13
2.40623e-12
5.76678e-12
3.21438e-12
8.75255e-10
2.10725e-09
3.98782e-09
5.08385e-09
1.79333e-11
1.4364e-11
1.4068e-11
1.39124e-11
6.16848e-12
2.04931e-12
2.00959e-12
2.04931e-12
2.08982e-12
4.94847e-11
1.28597e-21
5.63532e-21
1.52857e-18
1.08003e-15
4.00889e-14
2.03472e-13
6.036e-13
3.45643e-12
3.21381e-12
4.85751e-11
1.45585e-09
4.62954e-09
4.77126e-09
1.55033e-09
1.70185e-10
4.35063e-11
2.32748e-11
8.82146e-12
2.95181e-12
1.98052e-12
3.115e-12
6.53825e-12
6.53435e-12
1.40003e-22
7.16992e-22
3.7921e-19
2.03564e-16
7.1889e-15
3.37305e-14
1.43092e-13
1.38574e-12
2.92496e-12
4.61379e-12
3.07397e-10
2.08466e-09
1.78499e-09
1.12125e-09
2.38865e-10
3.19283e-11
9.38461e-12
2.9135e-12
1.57029e-12
1.93676e-12
3.19959e-12
6.178e-12
1.2288e-11
1.23861e-23
6.94214e-23
1.31822e-19
2.89915e-17
9.54078e-16
4.3994e-15
3.14187e-14
3.93852e-13
1.45658e-12
1.29459e-11
3.94785e-11
9.56413e-11
8.24755e-11
4.94095e-11
1.23359e-11
2.93389e-12
1.37567e-12
5.18843e-13
1.94217e-13
2.16535e-13
4.2357e-13
1.07483e-12
3.34518e-12
9.91696e-25
6.84931e-24
4.65807e-20
3.16879e-18
9.18159e-17
4.40453e-16
6.41612e-15
1.00754e-13
7.05715e-13
2.89798e-12
6.75861e-13
1.35688e-13
1.32516e-13
1.32516e-13
2.27761e-13
2.60571e-13
1.72541e-13
4.81222e-14
2.00408e-14
3.42944e-14
1.35711e-13
4.89271e-13
2.0453e-12
6.67118e-26
1.00641e-24
1.10452e-20
2.77103e-19
6.16515e-18
3.1933e-17
1.06199e-15
1.91996e-14
1.69858e-13
2.9831e-13
4.80905e-13
4.47523e-13
3.16002e-13
1.40821e-13
3.09224e-14
1.52862e-14
9.34322e-15
3.93743e-15
4.03227e-15
1.15983e-14
6.49572e-14
2.69654e-13
1.34564e-12
3.50305e-27
1.47578e-25
1.48597e-21
2.06506e-20
2.67063e-19
1.64471e-18
1.34003e-16
2.31893e-15
1.22042e-14
7.03697e-14
2.08973e-13
2.03491e-13
1.36787e-13
4.28174e-14
6.20932e-15
1.73172e-15
8.16934e-16
5.58483e-16
8.61458e-16
4.54386e-15
3.16336e-14
1.4836e-13
8.6042e-13
1.2229e-28
1.13579e-26
1.07151e-22
1.25836e-21
6.61878e-21
7.83096e-20
1.30189e-17
2.1758e-16
1.36376e-15
1.22246e-14
3.32267e-14
2.67833e-14
1.35893e-14
4.66693e-15
1.14454e-15
3.10104e-16
9.25144e-17
7.99886e-17
2.09832e-16
1.802e-15
1.51485e-14
7.94996e-14
5.3501e-13
2.73325e-30
3.21942e-28
3.29953e-24
4.39275e-23
8.78466e-23
8.11626e-21
1.12794e-18
2.21786e-17
1.28649e-16
1.05442e-15
1.60497e-15
1.49506e-15
1.09012e-15
5.62495e-16
1.78245e-16
2.85749e-17
4.57626e-18
7.10295e-18
5.86953e-17
7.07003e-16
6.8691e-15
4.09202e-14
3.53435e-13
2.08479e-31
4.17411e-31
4.94048e-28
3.0547e-26
1.30143e-24
9.98685e-22
9.28891e-20
2.29355e-18
1.48763e-17
5.01594e-17
1.13117e-16
1.23748e-16
1.09384e-16
6.92167e-17
2.5117e-17
3.50184e-18
7.60591e-19
1.80649e-18
1.98866e-17
2.68595e-16
2.90593e-15
2.14036e-14
2.77814e-13
1.92815e-33
2.66514e-32
7.027e-29
4.45097e-27
1.85268e-25
4.26632e-23
5.3239e-21
1.57442e-19
1.24279e-18
3.7724e-18
9.10498e-18
1.02004e-17
8.93649e-18
5.51044e-18
1.92244e-18
2.65873e-19
1.28833e-19
4.68594e-19
6.33879e-18
9.69625e-17
1.16276e-15
1.27238e-14
2.54512e-13
3.96524e-36
2.93619e-34
2.17648e-30
1.47485e-28
6.78407e-27
3.71801e-26
1.08154e-22
5.77639e-21
5.40677e-20
1.91202e-19
4.97673e-19
5.41669e-19
4.55616e-19
2.58759e-19
8.0796e-20
1.24104e-20
1.47133e-20
1.22136e-19
1.99842e-18
3.40038e-17
4.63891e-16
8.94733e-15
2.45769e-13
5.26392e-38
1.1609e-35
1.00294e-33
1.83975e-32
1.01051e-30
6.641e-29
3.5896e-26
4.43275e-23
7.45394e-22
4.2321e-21
1.00153e-20
1.00382e-20
8.07015e-21
4.8184e-21
1.84899e-21
7.24351e-22
2.16266e-21
3.42768e-20
6.37264e-19
1.20377e-17
1.93093e-16
6.74109e-15
2.26749e-13
7.71996e-40
9.45461e-39
6.77109e-37
7.95453e-35
5.38197e-33
3.78077e-30
6.51144e-29
9.52564e-26
1.89097e-24
9.28757e-24
2.30057e-23
3.04238e-23
2.96466e-23
2.49413e-23
1.89974e-23
3.31201e-23
4.457e-22
9.72862e-21
2.12549e-19
4.48427e-18
8.34515e-17
4.66647e-15
1.59408e-13
7.66065e-43
8.7015e-42
2.04389e-38
1.22624e-36
6.96946e-35
6.83654e-34
4.16602e-31
3.6289e-28
9.44835e-27
5.80694e-26
1.79854e-25
3.44989e-25
4.94312e-25
5.0133e-25
6.07745e-25
4.67564e-24
1.11427e-22
2.91299e-21
7.60675e-20
1.76866e-18
3.59819e-17
2.64255e-15
9.25064e-14
1.70353e-46
6.5453e-46
1.21046e-42
9.79941e-41
3.39046e-39
1.40639e-37
3.05195e-35
1.95993e-33
6.65606e-30
2.07679e-28
1.28983e-27
3.96485e-27
5.49251e-27
5.63138e-27
3.31417e-26
9.96432e-25
2.97583e-23
9.45461e-22
2.86251e-20
7.07277e-19
1.4872e-17
1.23845e-15
4.91232e-14
5.01205e-49
1.72439e-47
2.40757e-46
4.51732e-44
1.04865e-41
2.53861e-39
3.67638e-38
1.76203e-37
3.35344e-33
5.54669e-31
4.52841e-30
1.54885e-29
2.25454e-29
1.29621e-28
6.08653e-27
2.31161e-25
8.84925e-24
3.18554e-22
1.05633e-20
2.67858e-19
5.74936e-18
5.0676e-16
2.30639e-14
1.08395e-53
6.60068e-52
9.47447e-49
4.2641e-47
2.95371e-45
6.61005e-44
2.36254e-41
4.21585e-39
2.78311e-37
1.3995e-34
2.45359e-33
1.12718e-32
5.54256e-31
2.10297e-29
1.08879e-27
5.96866e-26
2.66054e-24
9.94977e-23
3.49777e-21
9.04193e-20
2.04545e-18
1.83379e-16
9.48219e-15
1.68494e-55
7.60007e-53
4.78112e-51
1.38024e-48
3.20853e-47
8.0639e-45
3.17014e-43
2.08445e-40
2.74947e-38
2.78891e-37
2.29167e-35
9.32193e-34
9.63562e-32
2.99055e-30
2.36045e-28
1.40636e-26
6.87268e-25
2.57843e-23
9.67833e-22
2.62988e-20
6.60917e-19
5.80868e-17
3.40049e-15
4.66821e-57
3.48537e-54
3.4395e-52
2.15114e-49
3.39821e-48
3.56878e-46
4.98431e-44
1.70428e-41
1.65435e-39
3.47872e-38
3.54717e-36
1.16697e-34
9.014e-33
5.01461e-31
4.4887e-29
2.44008e-27
1.36948e-25
5.21437e-24
2.17254e-22
6.59196e-21
1.92972e-19
1.58761e-17
1.04113e-15
2.50445e-59
1.03656e-56
2.22714e-53
9.1661e-51
7.67218e-50
2.45768e-48
2.40297e-45
1.02539e-43
4.84844e-42
1.42992e-39
1.71753e-37
7.05377e-36
1.21861e-33
8.57965e-32
5.69917e-30
3.0779e-28
2.06935e-26
8.27993e-25
4.07023e-23
1.46138e-21
5.07569e-20
3.70396e-18
2.68963e-16
1.09346e-60
9.50309e-58
9.50049e-56
5.77486e-55
1.89034e-52
3.5273e-49
9.26532e-48
6.82275e-46
6.17511e-43
2.91779e-41
4.74216e-39
5.38474e-37
1.79742e-34
9.4722e-33
5.15964e-31
3.47235e-29
2.5633e-27
1.13319e-25
6.88549e-24
2.89377e-22
1.16885e-20
7.36282e-19
5.76875e-17
5.44482e-63
5.12762e-60
4.5661e-59
3.24754e-56
7.64387e-54
1.71289e-50
4.16931e-49
4.62202e-47
3.36405e-44
2.67635e-42
6.04644e-40
5.73938e-38
1.12656e-35
6.3087e-34
4.53719e-32
4.41053e-30
2.9595e-28
1.49422e-26
1.07714e-24
4.84678e-23
2.19793e-21
1.24202e-19
1.00591e-17
1.31554e-65
5.64404e-65
2.50834e-61
2.12466e-57
2.33184e-55
1.89571e-54
4.36474e-51
2.41663e-48
6.14369e-47
9.55996e-44
3.96517e-41
2.9821e-39
1.54911e-37
2.52636e-35
3.8229e-33
4.57772e-31
2.92645e-29
1.67138e-27
1.3243e-25
6.23705e-24
3.09391e-22
1.7378e-20
1.38648e-18
5.38858e-68
5.8796e-67
1.28202e-62
7.78332e-61
7.71615e-59
2.29204e-56
7.31154e-54
1.5806e-50
2.3131e-48
9.50059e-47
1.70052e-43
9.49012e-42
3.14812e-39
8.96304e-37
1.33386e-34
1.71505e-32
1.57858e-30
1.08467e-28
9.69806e-27
5.83277e-25
3.05122e-23
1.9515e-21
1.46257e-19
4.66136e-73
8.48303e-69
3.8882e-66
1.56384e-64
1.01104e-61
1.14576e-57
1.79273e-55
2.85534e-53
1.61467e-49
1.41759e-48
3.74477e-46
8.85017e-44
2.28051e-40
2.00946e-38
8.43308e-37
6.08014e-35
2.75741e-32
3.53314e-30
3.69235e-28
3.93709e-26
2.05098e-24
1.71763e-22
1.15338e-20
1.52785e-77
5.30998e-74
1.53024e-70
1.31515e-66
5.46038e-64
1.73078e-61
3.78223e-58
1.31273e-56
3.07664e-54
5.21398e-50
3.84966e-48
3.59122e-45
6.48347e-43
9.79136e-41
4.48963e-38
2.9085e-36
1.10734e-34
8.41096e-32
1.10033e-29
1.48342e-27
8.81357e-26
1.03425e-23
6.89952e-22
4.41098e-81
1.75658e-78
3.50624e-74
2.11551e-71
1.52056e-68
9.7329e-67
2.38435e-64
1.70344e-59
1.96595e-58
8.3955e-56
1.69924e-51
4.40827e-49
2.06556e-47
2.54493e-44
4.02101e-41
1.36706e-38
2.16271e-36
1.51665e-34
5.25973e-32
5.99797e-30
9.55878e-28
2.68135e-25
2.96197e-23
3.42023e-92
5.1009e-85
7.80618e-84
2.49103e-79
1.1742e-76
3.04519e-73
2.27464e-70
1.90155e-66
5.30801e-62
4.02714e-61
2.96054e-57
1.13243e-54
4.64366e-52
4.89607e-49
2.40226e-46
2.17173e-44
6.91275e-41
1.21496e-37
3.13407e-35
7.40085e-33
1.65163e-30
4.43672e-28
9.13592e-26
2.91692e-106
4.05862e-101
0
-9.69085e-125
9.98411e-91
3.05042e-87
1.92931e-83
1.7347e-80
0
1.28464e-72
9.89455e-71
1.39263e-67
9.84017e-63
1.02321e-59
9.01371e-58
1.44942e-54
1.82387e-51
2.30167e-48
3.93616e-45
3.64718e-42
2.28555e-39
5.59673e-36
2.07782e-33
0.995534
0.995588
0.791085
0.0700506
0.99778
0.997468
0.990855
0.821346
0.999833
0.999911
0.999921
0.9991
0.999994
0.999986
0.999978
0.99996
0.926829
0.989683
0.99996
0.999753
0.160173
0.226867
0.321744
0.427555
0.000383095
0.00057248
0.00122269
0.00114708
9.25455e-05
9.95877e-05
0.000113054
0.00011362
8.13125e-05
8.36936e-05
8.55327e-05
8.6144e-05
8.13034e-05
8.33675e-05
8.49779e-05
8.5523e-05
0.00106648
0.00107397
0.00108555
0.00110147
0.000109089
0.000164983
0.000197563
0.000207577
1.32399e-09
2.02644e-08
1.9895e-08
8.7389e-08
6.627e-12
7.23e-12
6.1617e-11
1.94929e-10
1.89802e-11
1.93775e-11
1.66606e-11
2.13927e-11
6.53664e-12
1.01004e-11
1.63733e-11
2.3849e-11
4.42808e-12
7.30541e-12
1.25134e-11
1.87833e-11
3.0914e-12
5.30453e-12
9.30275e-12
1.44245e-11
2.06656e-12
3.62111e-12
6.42548e-12
1.03447e-11
1.33623e-12
2.38452e-12
4.24199e-12
7.11575e-12
9.35625e-13
1.72409e-12
3.15436e-12
5.48311e-12
7.88275e-13
1.49483e-12
2.87464e-12
4.92603e-12
7.5689e-13
1.43694e-12
2.97834e-12
4.82893e-12
7.53784e-13
1.40642e-12
3.21434e-12
5.18896e-12
7.04615e-13
1.28829e-12
3.17213e-12
5.23501e-12
4.92866e-13
8.93207e-13
2.27726e-12
4.21375e-12
2.84309e-13
5.23289e-13
1.34691e-12
2.61285e-12
1.50438e-13
2.88111e-13
7.47297e-13
1.62372e-12
7.03564e-14
1.4401e-13
3.77366e-13
1.3789e-12
2.89988e-14
6.47907e-14
2.10442e-13
2.26976e-12
1.05339e-14
2.71506e-14
1.33411e-13
1.46606e-12
3.33266e-15
1.07705e-14
8.41502e-14
5.46824e-13
9.19287e-16
3.98451e-15
4.10773e-14
3.82753e-13
2.21164e-16
1.30769e-15
1.69555e-14
1.75144e-13
4.66015e-17
3.67112e-16
5.63333e-15
6.72213e-14
8.61256e-18
8.6441e-17
1.51328e-15
2.15848e-14
1.34825e-18
1.69692e-17
3.28865e-16
5.52211e-15
1.57303e-19
2.68569e-18
5.68365e-17
1.11682e-15
1.02626e-20
3.07804e-19
7.19137e-18
1.6214e-16
1.64533e-22
1.93079e-20
5.26596e-19
1.38162e-17
6.853e-24
2.23226e-22
9.94044e-21
4.31477e-19
8.16144e-31
7.46645e-29
1.56771e-26
2.58311e-24
8.75321e-05
0.0150574
3.75642e-05
5.70766e-07
2.50278e-08
3.19278e-08
5.5511e-07
6.42827e-07
1.69991e-07
9.47899e-08
1.95263e-08
3.55085e-10
1.08748e-10
3.94809e-11
4.94864e-12
1.73975e-13
6.17664e-15
3.6808e-16
1.72804e-18
0.676347
0.396774
8.72826e-05
0.0272945
2.5168e-08
2.72065e-08
2.83804e-08
7.99685e-07
3.80172e-06
2.021e-06
6.66679e-07
1.15863e-08
6.0964e-09
1.61075e-09
1.63217e-10
7.36412e-12
2.17642e-13
1.09969e-14
9.65553e-17
0.999287
0.986984
0.502077
0.713489
0.528166
0.0295279
0.0157979
8.48186e-07
9.28392e-07
1.88119e-06
5.37594e-06
9.91666e-07
2.95328e-07
8.85237e-08
7.15582e-09
3.27703e-10
1.34319e-11
1.00924e-13
3.14762e-15
0.999687
0.999523
0.997518
0.998088
0.997453
0.826946
0.834934
0.759261
0.287271
0.0141226
7.08266e-06
2.45206e-05
4.04639e-06
3.13623e-06
2.71013e-07
1.18888e-08
4.43647e-10
5.13387e-12
6.12042e-14
0.99954
0.999527
0.999506
0.998978
0.998459
0.998233
0.997236
0.996752
0.96174
0.899426
0.699028
0.132003
0.00357925
5.9351e-05
5.47212e-06
5.03043e-07
1.2962e-08
1.51635e-10
2.75522e-12
0.593644
0.756945
0.84221
0.911713
0.998237
0.997401
0.996822
0.996802
0.996741
0.995886
0.993797
0.945297
0.521032
0.0296729
8.76819e-05
3.99131e-06
5.44534e-07
3.93942e-09
7.24734e-11
0.0155661
0.0579931
0.111439
0.174566
0.262733
0.3711
0.451976
0.537791
0.74711
0.993797
0.990827
0.989384
0.988578
0.630975
0.0556286
9.85887e-05
3.0581e-06
3.12108e-07
1.48838e-09
0.00012996
0.000192243
0.000291463
0.000540991
0.000563109
0.00168175
0.00316763
0.00860893
0.0505418
0.152921
0.370295
0.856551
0.982112
0.972461
0.575769
0.0433336
7.60188e-05
5.95525e-06
8.33483e-08
8.79713e-05
0.000114499
0.000161937
0.00025195
0.000358409
0.00140085
0.00240513
0.00137947
8.44819e-05
0.000388796
0.000516942
0.107259
0.638705
0.963877
0.929459
0.448073
0.0145491
0.000195631
2.63805e-07
8.66145e-05
0.000385722
0.0013391
0.00134602
0.00134057
0.0010179
0.000294613
8.84949e-05
1.20011e-05
1.08543e-05
7.28729e-05
0.000203669
0.0453883
0.61338
0.917384
0.809583
0.210669
0.000452171
2.13047e-05
0.00111005
0.00110659
0.000585923
0.000162944
9.19933e-05
1.21438e-05
2.64407e-07
1.03237e-07
1.42186e-07
5.83769e-07
2.3818e-06
1.3889e-05
8.62216e-05
0.105952
0.755628
0.799158
0.513534
0.0258649
0.000176046
0.000203093
0.000132275
1.03636e-05
4.15114e-07
1.21447e-07
5.10136e-08
4.91956e-09
5.07779e-09
8.93377e-09
3.91345e-08
2.05455e-07
1.13977e-06
5.61976e-06
9.73227e-06
0.413854
0.784813
0.673542
0.104485
0.0011643
1.62083e-08
9.57805e-08
1.0091e-07
1.95085e-08
3.26526e-09
1.0973e-09
2.12547e-09
3.28519e-09
4.47352e-09
7.84799e-09
2.81359e-08
1.43372e-07
6.2177e-07
6.55694e-07
0.0981461
0.744831
0.716386
0.168385
0.00512488
3.18983e-10
3.19073e-10
1.65124e-09
1.15917e-09
9.1866e-10
5.59965e-10
5.10434e-10
5.08719e-10
1.18809e-06
2.02488e-06
8.48363e-07
3.60578e-07
4.102e-07
3.3525e-07
6.55341e-07
0.589034
0.698978
0.222193
0.0101483
6.90128e-11
2.44197e-10
5.81118e-10
7.70329e-10
7.724e-10
5.86423e-10
5.08589e-10
5.08719e-10
2.54777e-06
1.00668e-05
1.04208e-05
5.89109e-06
3.38131e-07
3.38131e-07
3.34251e-07
0.418909
0.682378
0.239409
0.0153068
6.86008e-11
2.17221e-10
3.9161e-10
6.02283e-10
8.50995e-10
8.04006e-10
5.08719e-10
5.08695e-10
8.17736e-07
1.03665e-05
1.04397e-05
1.04586e-05
2.68678e-06
3.38131e-07
4.07116e-07
0.286865
0.664244
0.260362
0.0199425
7.53213e-11
1.83457e-10
1.88922e-10
5.9024e-10
2.85539e-09
3.78525e-09
2.18301e-09
5.08719e-10
5.67546e-10
3.76288e-06
1.04586e-05
1.04586e-05
9.68121e-06
5.73034e-07
6.51675e-07
0.166733
0.633749
0.282207
0.0240466
5.40676e-11
1.19448e-10
1.06333e-10
7.07909e-10
4.84561e-09
5.86387e-09
4.6854e-09
1.01563e-09
7.45807e-10
3.67378e-07
1.01961e-05
1.04586e-05
1.04497e-05
2.12292e-06
6.66596e-07
0.0881343
0.6034
0.305373
0.0285032
2.78071e-11
9.43262e-11
1.06119e-10
2.37918e-10
1.73507e-09
3.98243e-09
3.9113e-09
2.28013e-09
8.15318e-10
9.42351e-10
7.21084e-06
1.04497e-05
8.15141e-06
9.35694e-07
6.09829e-07
0.0514975
0.572419
0.325048
0.0339366
1.69221e-11
9.70284e-11
1.28036e-10
1.26975e-10
1.27164e-10
1.95303e-08
2.57742e-07
1.22499e-07
5.65894e-09
2.7233e-09
3.52275e-06
6.39547e-06
2.13477e-06
5.62043e-07
5.67221e-07
0.0411144
0.545503
0.348046
0.0416643
1.38939e-11
1.24653e-10
1.3141e-10
1.27164e-10
1.27462e-10
5.57916e-07
1.93633e-06
1.50938e-06
1.13145e-07
4.96904e-07
3.95497e-06
2.37347e-06
5.54175e-07
5.25286e-07
5.40757e-07
0.0316847
0.505753
0.380756
0.0505558
1.80717e-11
1.55801e-10
1.47002e-10
1.27604e-10
1.27889e-10
1.05841e-06
1.97332e-06
1.97332e-06
1.37937e-06
1.97083e-06
2.28412e-06
9.44061e-07
5.09856e-07
5.14805e-07
5.25286e-07
0.0935512
0.3581
0.34545
0.062938
4.75312e-11
2.21624e-10
4.33879e-10
1.50665e-10
1.35801e-10
3.67553e-10
1.31382e-06
1.97332e-06
1.97206e-06
1.54074e-06
5.46372e-07
5.06596e-07
5.05415e-07
5.09856e-07
0.0253174
0.190486
0.168677
0.195433
0.162814
6.9195e-11
2.85191e-10
1.07127e-09
1.77121e-10
1.89206e-10
1.56521e-07
3.49689e-07
1.05237e-06
8.33876e-07
6.55447e-07
5.05484e-07
5.05123e-07
5.05064e-07
5.05419e-07
0.124418
0.196789
0.0781219
0.0632264
0.0711117
5.47251e-11
3.83994e-10
1.27064e-09
1.95189e-10
2.27321e-07
1.9195e-06
1.82978e-06
5.29044e-07
5.07484e-07
5.05485e-07
5.05123e-07
5.05064e-07
5.05105e-07
0.0734964
0.20736
0.131886
0.0185563
0.0193066
0.00618047
1.96902e-11
5.79916e-10
1.32908e-09
2.52263e-10
9.85034e-07
1.94727e-06
1.94727e-06
1.03508e-06
4.9037e-07
5.12314e-07
5.44741e-07
5.05123e-07
0.0265864
0.203453
0.208658
0.095804
0.0106579
0.00792941
0.00146126
1.20516e-11
7.15103e-10
1.38558e-09
3.13946e-10
4.01944e-10
1.33411e-06
8.30483e-07
4.28588e-07
4.63342e-07
4.93125e-07
5.53699e-07
0.0491446
0.202037
0.209304
0.208333
0.0733716
0.00772359
0.00247798
0.000367765
2.32238e-11
6.87426e-10
1.39157e-09
1.41446e-09
1.27434e-09
1.32648e-09
8.1637e-09
1.51683e-08
2.70989e-07
4.14346e-06
0.101252
0.209044
0.20971
0.209179
0.190962
0.0306689
0.00527302
0.000381099
8.56836e-05
6.45814e-11
1.76731e-10
1.7029e-09
3.20459e-09
1.46926e-09
8.7246e-08
1.49652e-08
6.38393e-08
3.92943e-06
0.0859201
0.209044
0.20971
0.209318
0.201256
0.0539125
0.00885057
0.00475608
0.000126391
1.588e-05
9.56446e-11
6.95956e-11
3.44361e-09
3.33676e-09
1.68751e-09
3.58489e-06
4.4541e-08
2.5982e-07
0.00827878
0.191002
0.204759
0.195811
0.132159
0.0354692
0.000955564
0.00100751
0.00597009
0.000114592
2.61784e-06
9.09379e-11
6.91951e-11
3.44718e-09
2.58574e-09
2.75218e-08
3.90117e-06
1.69639e-07
0.00737017
0.0713814
0.0915653
0.0595969
0.0212751
0.00401844
0.000957954
0.000135551
0.000419497
0.00584021
0.00024669
1.12022e-06
4.4621e-11
4.65756e-11
2.14444e-09
2.24096e-09
8.17618e-09
2.22484e-06
1.38046e-07
0.0314458
0.0587163
0.0142378
0.000524733
6.43459e-05
7.97953e-05
4.98694e-05
2.29147e-05
0.000340025
0.00525976
0.000250096
9.09701e-07
1.40714e-11
5.75043e-11
5.68852e-11
6.74567e-09
3.25908e-07
1.04627e-07
1.03882e-07
0.00014912
0.000460519
0.000760913
0.000364905
1.9171e-05
2.99426e-06
2.19692e-06
8.91005e-06
0.000426523
0.00472235
0.000146361
8.77663e-07
7.71968e-12
7.2124e-11
5.74688e-11
2.25223e-08
3.26154e-07
9.49358e-08
1.04621e-07
0.00169016
0.043933
0.0139394
1.83212e-05
2.60132e-06
4.57816e-07
5.50474e-07
3.57357e-06
0.000716195
0.00431157
2.20708e-05
8.73898e-07
2.25054e-12
5.74972e-11
5.72553e-11
9.46831e-09
5.59142e-08
7.75005e-08
1.13258e-07
0.0211669
0.050322
0.0225279
1.07577e-05
1.97336e-07
2.08214e-07
3.71443e-07
2.10759e-05
0.000976597
0.00173759
1.89693e-06
8.73898e-07
6.55934e-13
1.59684e-11
1.43596e-10
3.45446e-10
8.21087e-12
5.31626e-07
7.13812e-05
4.22391e-06
0.0503112
0.0132854
1.95697e-07
1.94841e-07
1.94603e-07
2.23318e-07
3.73646e-05
0.000599379
7.86629e-05
2.09749e-05
9.74068e-07
1.66459e-13
4.48643e-12
1.91245e-10
1.88201e-12
3.49154e-12
1.35818e-06
2.8674e-06
2.64053e-06
0.0296981
0.0611263
0.00867752
1.9395e-07
1.95229e-07
2.52159e-07
2.39331e-05
9.18721e-05
8.41672e-05
7.64599e-05
1.58482e-06
3.24772e-14
8.5078e-13
1.39077e-11
1.14206e-12
1.27315e-12
4.9162e-07
3.05495e-06
2.92172e-06
0.00625209
0.081616
0.0126456
2.24205e-05
2.04013e-07
2.36836e-07
8.96793e-06
1.85201e-05
4.66181e-05
5.89455e-05
1.46968e-06
4.19647e-15
1.10619e-13
1.31039e-12
1.05041e-12
5.35488e-10
2.98687e-10
1.42998e-05
9.46165e-06
0.0244434
0.0825735
0.0281676
6.5408e-05
2.02858e-07
2.0423e-07
1.22942e-06
5.28136e-06
1.78406e-05
1.55187e-05
5.62077e-07
3.14545e-16
8.45781e-15
1.46754e-13
1.0588e-12
3.23061e-15
4.13554e-17
1.07364e-09
0.000329929
0.0457055
0.0831681
0.0838015
0.00649505
1.98735e-07
1.98735e-07
2.78069e-07
1.31187e-06
5.4199e-06
1.89259e-06
1.94221e-07
6.25292e-18
1.76389e-16
6.95514e-15
2.91151e-13
5.69279e-15
7.28242e-19
9.37581e-10
1.56866e-21
6.34834e-29
0.0827039
0.0838403
0.00461008
1.98212e-07
2.85751e-07
2.99553e-07
6.17154e-07
1.95388e-06
3.7789e-07
1.49073e-07
2.53239e-22
4.21965e-20
4.95548e-18
4.41744e-17
4.89833e-19
2.47078e-28
3.78885e-24
1.08241e-44
4.59622e-44
0.0555462
0.0838403
0.0635573
0.00915369
6.54223e-07
5.0863e-07
5.41192e-07
5.39246e-07
1.49073e-07
1.49073e-07
)
;

boundaryField
{
    leftWall
    {
        type            zeroGradient;
    }
    rightWall
    {
        type            zeroGradient;
    }
    lowerWall
    {
        type            zeroGradient;
    }
    atmosphere
    {
        type            inletOutlet;
        inletValue      uniform 0;
        value           nonuniform List<scalar> 
46
(
0
0
0
0
0
0
0
0
0
0
0
0
0
0
0
0
0
0
0
0
0
0
0
0
0
0
0
0
0
0
0
0
0
0
0
0
0.0555462
0.0838403
0.0635573
0.00915369
6.54223e-07
5.0863e-07
5.41192e-07
5.39246e-07
1.49073e-07
1.49073e-07
)
;
    }
    defaultFaces
    {
        type            empty;
    }
}


// ************************************************************************* //
