/*--------------------------------*- C++ -*----------------------------------*\
  =========                 |
  \\      /  F ield         | OpenFOAM: The Open Source CFD Toolbox
   \\    /   O peration     | Website:  https://openfoam.org
    \\  /    A nd           | Version:  13
     \\/     M anipulation  |
\*---------------------------------------------------------------------------*/
FoamFile
{
    format      ascii;
    class       surfaceScalarField;
    location    "0.35";
    object      alphaPhi.water;
}
// * * * * * * * * * * * * * * * * * * * * * * * * * * * * * * * * * * * * * //

dimensions      [0 3 -1 0 0 0 0];

internalField   nonuniform List<scalar> 
4432
(
-2.2151e-06
2.2151e-06
1.78572e-07
-2.39367e-06
5.67982e-06
-5.50125e-06
1.23333e-05
-6.65344e-06
1.86506e-05
-6.31738e-06
2.39863e-05
-5.33569e-06
2.82623e-05
-4.27598e-06
3.1656e-05
-3.39373e-06
3.4396e-05
-2.73992e-06
3.66604e-05
-2.26444e-06
3.85385e-05
-1.87811e-06
4.00288e-05
-1.49027e-06
4.10291e-05
-1.00034e-06
4.13219e-05
-2.92834e-07
4.04228e-05
8.9919e-07
3.74641e-05
2.95863e-06
3.14516e-05
6.01251e-06
2.1406e-05
1.00456e-05
7.8064e-06
1.35996e-05
-5.54839e-06
1.42328e-05
-1.38987e-05
8.16827e-06
-1.48861e-05
8.08576e-07
-1.70288e-05
-2.1877e-06
4.4028e-06
3.52566e-07
-4.93394e-06
5.92306e-06
-1.10717e-05
1.25609e-05
-1.32912e-05
1.88316e-05
-1.25881e-05
2.41199e-05
-1.06241e-05
2.83692e-05
-8.52524e-06
3.17675e-05
-6.79204e-06
3.45435e-05
-5.51592e-06
3.68678e-05
-4.58873e-06
3.88209e-05
-3.83122e-06
4.0392e-05
-3.06131e-06
4.15148e-05
-2.12317e-06
4.21198e-05
-8.9788e-07
4.22234e-05
7.95637e-07
4.19665e-05
3.21555e-06
4.09372e-05
7.04179e-06
3.76059e-05
1.33769e-05
2.91657e-05
2.20398e-05
1.41402e-05
2.92584e-05
-3.31873e-06
2.7509e-05
-8.66917e-06
5.85162e-06
-2.56653e-05
-1.96815e-06
6.37095e-06
6.64673e-07
-7.56676e-06
6.29351e-06
-1.67006e-05
1.28551e-05
-1.98529e-05
1.89779e-05
-1.87108e-05
2.41146e-05
-1.57607e-05
2.82557e-05
-1.26664e-05
3.16104e-05
-1.01467e-05
3.44049e-05
-8.31047e-06
3.67942e-05
-6.97798e-06
3.88401e-05
-5.87716e-06
4.05225e-05
-4.74368e-06
4.17603e-05
-3.36094e-06
4.24153e-05
-1.55296e-06
4.23725e-05
8.38442e-07
4.15608e-05
4.02734e-06
4.02556e-05
8.3469e-06
3.90596e-05
1.4573e-05
3.71079e-05
2.39915e-05
3.10926e-05
3.52738e-05
1.91292e-05
3.94725e-05
6.88026e-06
1.81656e-05
-1.87733e-05
-1.67536e-06
8.04631e-06
1.13056e-06
-1.03727e-05
6.80201e-06
-2.2372e-05
1.32393e-05
-2.62901e-05
1.91479e-05
-2.46194e-05
2.40773e-05
-2.06902e-05
2.80837e-05
-1.66728e-05
3.13991e-05
-1.34621e-05
3.42402e-05
-1.11515e-05
3.67361e-05
-9.47388e-06
3.89223e-05
-8.06339e-06
4.07598e-05
-6.58124e-06
4.21586e-05
-4.75965e-06
4.30002e-05
-2.39459e-06
4.31463e-05
6.92365e-07
4.24871e-05
4.68653e-06
4.10114e-05
9.82264e-06
3.9244e-05
1.63403e-05
3.83899e-05
2.48456e-05
3.76298e-05
3.60339e-05
3.21206e-05
4.49817e-05
1.82641e-05
3.20212e-05
-5.67994e-07
-1.28682e-06
9.33313e-06
1.72876e-06
-1.33883e-05
7.41294e-06
-2.80562e-05
1.36701e-05
-3.25473e-05
1.93042e-05
-3.02536e-05
2.39854e-05
-2.53713e-05
2.78463e-05
-2.05337e-05
3.11383e-05
-1.67541e-05
3.40575e-05
-1.40708e-05
3.66977e-05
-1.21141e-05
3.90614e-05
-1.04271e-05
4.10881e-05
-8.6079e-06
4.268e-05
-6.35158e-06
4.37225e-05
-3.43711e-06
4.41042e-05
3.10685e-07
4.37394e-05
5.05135e-06
4.25919e-05
1.09701e-05
4.07392e-05
1.81931e-05
3.90136e-05
2.65711e-05
3.85932e-05
3.64543e-05
3.61732e-05
4.74016e-05
2.35034e-05
4.4691e-05
2.28717e-05
-8.01781e-07
1.01349e-05
2.44296e-06
-1.6633e-05
8.11038e-06
-3.37236e-05
1.41361e-05
-3.8573e-05
1.94487e-05
-3.55662e-05
2.38595e-05
-2.97821e-05
2.75823e-05
-2.42565e-05
3.08782e-05
-2.005e-05
3.39106e-05
-1.71031e-05
3.67286e-05
-1.49321e-05
3.92978e-05
-1.29963e-05
4.15357e-05
-1.08458e-05
4.33376e-05
-8.15349e-06
4.45948e-05
-4.69426e-06
4.52091e-05
-3.03647e-07
4.51167e-05
5.14383e-06
4.42945e-05
1.17922e-05
4.27549e-05
1.97327e-05
4.05613e-05
2.87648e-05
3.87277e-05
3.82879e-05
3.63273e-05
4.9802e-05
2.53691e-05
5.56492e-05
4.81651e-05
-2.58614e-07
1.03935e-05
3.24596e-06
-2.01376e-05
8.87034e-06
-3.9348e-05
1.46257e-05
-4.43284e-05
1.95948e-05
-4.05353e-05
2.37414e-05
-3.39287e-05
2.73565e-05
-2.78716e-05
3.06977e-05
-2.33913e-05
3.38832e-05
-2.02886e-05
3.69115e-05
-1.79603e-05
3.97107e-05
-1.57956e-05
4.21786e-05
-1.33137e-05
4.42048e-05
-1.01797e-05
4.56836e-05
-6.173e-06
4.65243e-05
-1.14437e-06
4.66776e-05
4.99058e-06
4.61083e-05
1.23615e-05
4.48495e-05
2.09914e-05
4.27465e-05
3.08678e-05
3.99101e-05
4.11243e-05
3.63218e-05
5.33903e-05
2.7029e-05
6.4942e-05
7.5119e-05
3.57592e-07
1.00359e-05
4.09432e-06
-2.38743e-05
9.63086e-06
-4.48845e-05
1.50849e-05
-4.97824e-05
1.97221e-05
-4.51725e-05
2.36472e-05
-3.78538e-05
2.72088e-05
-3.14332e-05
3.06443e-05
-2.68268e-05
3.40171e-05
-2.36614e-05
3.72748e-05
-2.1218e-05
4.03144e-05
-1.88353e-05
4.30232e-05
-1.60224e-05
4.52919e-05
-1.24484e-05
4.70137e-05
-7.89479e-06
4.81048e-05
-2.23553e-06
4.8518e-05
4.57738e-06
4.81808e-05
1.26987e-05
4.7115e-05
2.20572e-05
4.52456e-05
3.27372e-05
4.22059e-05
4.4164e-05
3.74547e-05
5.81416e-05
2.78886e-05
7.4508e-05
0.000102933
1.8942e-14
-5.77506e-15
-7.21845e-16
1.10375e-13
-1.76436e-15
2.40182e-14
-2.51579e-17
3.71794e-16
-5.07815e-19
3.4949e-18
-2.50502e-20
5.6909e-20
-1.33626e-21
1.68096e-21
-7.771e-23
5.34756e-23
-4.70345e-24
1.29846e-24
-2.79202e-25
-2.06321e-26
-1.49716e-26
-1.92263e-26
-7.28923e-28
-2.48598e-27
-1.05785e-28
-1.75852e-28
-2.01715e-29
-2.89902e-28
-1.22951e-30
-3.70424e-29
-5.62274e-32
-2.3825e-30
-2.30944e-33
-1.38075e-31
-6.96732e-36
-3.58561e-33
-9.20242e-34
3.58133e-14
-2.79316e-14
1.14464e-13
4.14385e-12
-9.38422e-15
1.68591e-13
-1.29479e-17
1.19506e-14
-5.36182e-18
3.34464e-18
-1.56176e-18
3.68594e-18
-9.50579e-20
3.84712e-19
-4.60904e-21
1.35171e-20
-2.58459e-22
2.70221e-22
-1.55588e-23
-3.12235e-24
-8.47727e-25
-8.44574e-25
-4.947e-26
-7.6029e-26
-1.71236e-26
-1.07576e-26
-4.11219e-27
-9.20501e-27
-3.26603e-28
-5.94822e-27
-1.48976e-29
-3.32041e-28
-5.47358e-31
-1.61365e-29
-5.51759e-34
-6.98171e-31
-3.03599e-33
4.01849e-13
0
2.86793e-12
7.34403e-11
-9.27532e-13
1.76552e-11
-1.54052e-17
4.01798e-14
-1.40921e-17
5.43957e-18
-9.38547e-18
1.49201e-17
-1.51483e-18
3.67285e-18
-1.03233e-19
3.09167e-19
-5.70014e-21
8.6241e-21
-3.2563e-22
-1.1033e-22
-1.35983e-23
-3.75031e-23
-2.07713e-24
-3.73299e-24
-1.79916e-24
-1.48526e-24
-5.16379e-25
-1.76249e-24
-3.06692e-26
-6.1548e-25
-1.44812e-27
-4.13831e-26
-4.93051e-29
-1.7276e-27
-4.59747e-32
-7.9157e-29
-2.71418e-31
6.65036e-12
0
1.48939e-11
1.28175e-09
-8.51307e-13
3.48209e-11
-1.3204e-16
5.9688e-13
-1.27757e-16
8.87748e-18
-5.69345e-17
1.59045e-16
-8.92859e-18
2.39332e-17
-1.07666e-18
2.24528e-18
-1.59494e-19
1.22187e-19
-2.22246e-20
-9.57951e-21
-1.22798e-21
-8.63298e-21
-2.40171e-22
-1.09733e-21
-1.81774e-22
-2.01723e-22
-4.24613e-23
-2.01812e-22
-2.20366e-24
-5.04771e-23
-9.6565e-26
-3.05392e-24
-3.02059e-27
-1.3462e-25
-2.84969e-30
-5.99378e-27
-2.36609e-29
-2.53332e-10
-1.12143e-08
-5.50557e-11
1.3281e-08
-5.86576e-13
1.63945e-09
-4.75386e-16
1.07949e-14
-4.78902e-16
2.35273e-17
-1.47051e-16
5.13145e-16
-3.08108e-17
7.01299e-17
-1.21836e-17
1.0864e-17
-7.12209e-18
2.47948e-18
-2.04682e-18
-4.2106e-19
-1.02495e-19
-5.40567e-19
-2.05995e-20
-3.73824e-20
-1.34081e-20
-2.15936e-20
-2.5955e-21
-1.64654e-20
-1.19229e-22
-3.14872e-21
-4.66967e-24
-1.80849e-22
-1.37641e-25
-7.52485e-24
-1.3919e-28
-3.52546e-25
-1.4913e-27
-1.27658e-08
-1.97068e-08
-5.34682e-09
1.38882e-08
-1.02523e-14
9.08033e-09
-5.92856e-16
2.1027e-16
-3.05736e-15
6.06236e-16
-4.3616e-16
4.92196e-15
-9.81477e-17
3.78129e-16
-2.58523e-16
1.35746e-16
-2.05689e-16
3.22963e-16
-6.05072e-17
-6.86268e-19
-2.98328e-18
-1.15219e-17
-1.27535e-18
-1.41807e-18
-7.66757e-19
-1.2267e-18
-1.26652e-19
-1.01438e-18
-4.86436e-21
-1.69447e-19
-1.63867e-22
-8.30567e-21
-5.41863e-24
-3.86207e-22
-5.89572e-27
-3.20015e-23
-8.2604e-26
-3.17116e-08
3.00277e-08
-1.02251e-08
1.46932e-08
-1.89397e-10
1.30477e-09
-1.42961e-16
-1.89397e-10
-2.13143e-16
1.05405e-15
-1.52413e-16
5.25446e-15
-5.19554e-16
9.27333e-16
-1.22823e-14
1.18623e-14
-7.97455e-15
2.96703e-14
-1.47486e-15
0
-1.78753e-16
0
-6.18431e-17
-4.79791e-17
-3.47766e-17
-1.51777e-17
-5.2328e-18
-4.17925e-17
-1.88409e-19
-8.94895e-18
-6.08158e-21
-4.11284e-19
-1.91095e-22
-1.80587e-20
-2.10946e-25
-8.39346e-22
-3.61952e-24
-7.59125e-09
1.2619e-08
-1.29023e-09
0
-1.76642e-09
3.5634e-09
-1.46871e-11
-1.91756e-09
-6.13977e-13
9.89892e-13
-2.69663e-12
2.03691e-12
-2.36721e-12
7.71404e-12
-5.42151e-13
5.45576e-12
-2.27068e-13
8.08404e-13
-4.76862e-14
0
-1.03643e-14
0
-2.86736e-15
-3.84464e-15
-1.34318e-15
-9.24439e-16
-1.67772e-16
-1.45125e-15
-6.2009e-18
-2.34497e-16
-1.9087e-19
-9.01623e-18
-5.45953e-21
-3.16019e-19
-7.20165e-24
-8.23058e-21
-4.32525e-23
2.98755e-06
7.04839e-06
1.17172e-05
-3.2604e-05
2.2921e-05
-5.60883e-05
3.33368e-05
-6.01982e-05
4.21187e-05
-5.39544e-05
4.99145e-05
-4.56496e-05
5.75083e-05
-3.90269e-05
6.52217e-05
-3.45403e-05
7.29823e-05
-3.1422e-05
8.05433e-05
-2.8779e-05
8.76369e-05
-2.59288e-05
9.40435e-05
-2.24291e-05
9.95947e-05
-1.79996e-05
0.000104097
-1.23967e-05
0.000107325
-5.46418e-06
0.000109375
2.52781e-06
0.000109772
1.2302e-05
0.000108498
2.33312e-05
0.000105551
3.56834e-05
0.000100611
4.91045e-05
9.39142e-05
6.48381e-05
8.73113e-05
8.1111e-05
0.000111268
7.87287e-05
6.81767e-06
2.30723e-07
1.7102e-05
-4.28883e-05
2.67374e-05
-6.57233e-05
3.48071e-05
-6.82673e-05
4.19954e-05
-6.11423e-05
4.92746e-05
-5.29285e-05
5.71058e-05
-4.68581e-05
6.54052e-05
-4.28394e-05
7.3832e-05
-3.98487e-05
8.20211e-05
-3.6968e-05
8.96815e-05
-3.35892e-05
9.66328e-05
-2.93801e-05
0.000102826
-2.41924e-05
0.000108385
-1.79551e-05
0.000113359
-1.04369e-05
0.000116324
-4.37723e-07
0.000118563
1.00627e-05
0.000119348
2.25461e-05
0.000118815
3.6217e-05
0.000117433
5.04865e-05
0.00011654
6.57315e-05
0.000116846
8.08041e-05
0.000104646
0.000123468
1.29253e-05
-1.26945e-05
2.70111e-05
-5.69715e-05
3.39267e-05
-7.26206e-05
3.75722e-05
-7.18926e-05
4.24359e-05
-6.5989e-05
4.95396e-05
-6.00179e-05
5.8142e-05
-5.5449e-05
6.73898e-05
-5.20783e-05
7.67092e-05
-4.91595e-05
8.57448e-05
-4.59966e-05
9.42489e-05
-4.20811e-05
0.000101994
-3.7126e-05
0.000108747
-3.09304e-05
0.000114207
-2.33826e-05
0.000118373
-1.45451e-05
0.000122778
-4.83983e-06
0.000125874
6.96621e-06
0.000127207
2.1213e-05
0.000128021
3.54027e-05
0.00012899
4.95177e-05
0.000130856
6.38658e-05
0.000133125
7.8535e-05
9.43872e-05
0.000143384
2.28393e-05
-3.55323e-05
4.1861e-05
-6.83787e-05
4.10811e-05
-4.52316e-05
3.83402e-05
-4.15239e-05
3.9834e-05
-4.01989e-05
4.50801e-05
-3.67917e-05
5.19149e-05
-3.23884e-05
5.8553e-05
-2.81374e-05
6.40616e-05
-2.39487e-05
6.82255e-05
-1.97349e-05
7.13755e-05
-1.56939e-05
7.41252e-05
-1.20925e-05
7.70953e-05
-5.29282e-06
8.14542e-05
-1.97684e-07
8.84174e-05
-7.72733e-09
9.96474e-05
-3.21753e-10
0.000112498
8.38191e-07
0.000126078
7.02806e-06
0.000138
1.78124e-05
0.00014326
3.57309e-05
0.000146156
6.09695e-05
0.000146601
7.80898e-05
8.9197e-05
0.000151791
2.42379e-05
-2.87995e-05
1.16486e-05
-3.71684e-06
9.57002e-06
-4.91351e-08
8.81239e-06
-5.9901e-10
7.71231e-06
-6.05978e-12
6.85301e-06
-4.86669e-14
6.37162e-06
-4.51679e-16
5.71058e-06
-2.29233e-16
4.63131e-06
-6.37809e-15
3.25302e-06
-4.28077e-17
1.81737e-06
-4.20352e-13
1.0397e-06
-1.00151e-11
2.05772e-07
-3.50789e-12
8.08824e-09
-3.15929e-13
3.6094e-10
-3.97186e-14
3.54275e-11
-1.82155e-11
1.57604e-06
-1.22251e-08
8.68359e-06
2.25454e-10
2.30741e-05
1.85674e-07
4.93781e-05
5.00052e-07
8.98405e-05
1.01848e-06
0.000129387
1.00985e-05
3.51574e-05
0.00015547
3.76658e-06
8.48487e-24
4.97403e-08
-2.2142e-22
6.05119e-10
-1.08126e-20
6.10861e-12
-4.44805e-19
4.88424e-14
-1.39431e-17
3.08122e-16
-1.35542e-16
5.35881e-18
-8.70788e-17
5.14026e-18
-8.9732e-17
2.71e-17
-6.35114e-15
4.89375e-18
-5.39853e-17
2.59213e-15
-4.22946e-13
8.85934e-14
-1.01029e-11
1.03646e-13
-3.53868e-12
5.55716e-14
-2.80941e-13
5.5815e-14
-5.30165e-14
3.24058e-11
-5.05895e-11
3.35032e-10
-1.25497e-08
2.02038e-08
-2.06202e-08
2.18912e-07
0
6.43847e-07
3.91407e-08
1.49507e-06
1.27269e-07
7.3078e-06
2.18362e-07
5.76257e-07
2.76789e-05
-1.39421e-24
2.83506e-24
-7.90042e-23
-1.4381e-22
-2.80106e-21
-8.09717e-21
-8.12407e-21
-4.39908e-19
2.49039e-20
-1.39915e-17
1.98093e-19
-1.35981e-16
2.70173e-18
-4.99624e-16
1.71735e-18
-2.8777e-16
2.2918e-16
-1.8083e-14
2.13974e-16
-5.94539e-17
3.59165e-13
-8.30287e-13
3.56242e-12
-4.57301e-11
6.96981e-13
-1.77987e-11
1.90835e-13
-3.60784e-13
4.78503e-13
-3.53768e-13
4.06736e-09
-8.34483e-09
4.35137e-08
-7.2017e-08
9.65632e-08
-7.69369e-08
9.6438e-08
-5.21095e-08
7.02309e-08
0
1.0381e-07
7.22481e-09
2.91018e-07
2.06784e-08
4.38659e-08
8.01782e-07
-2.30097e-23
-2.43875e-25
-3.51106e-23
-1.07883e-22
-2.70859e-21
-1.0945e-20
-8.29441e-20
-1.11978e-18
2.76217e-19
-3.84057e-17
9.60571e-18
-4.0602e-16
3.43537e-17
-1.29721e-15
2.76927e-17
-7.06949e-16
1.98331e-15
-1.92393e-14
2.14824e-15
-1.64182e-16
2.69676e-12
-3.20734e-11
1.02784e-11
-4.76781e-11
2.26766e-12
-3.34385e-11
4.14896e-13
-3.93085e-13
1.5877e-11
-1.58091e-11
3.48494e-08
-4.02685e-08
8.50102e-08
-1.20714e-07
1.06869e-07
-9.73344e-08
1.41663e-07
-8.53395e-08
1.5649e-07
-1.3366e-08
1.75157e-08
7.17787e-09
2.77642e-08
9.59897e-09
1.43146e-08
5.58256e-08
-9.4307e-25
6.99195e-25
-1.33068e-23
-9.82074e-23
-2.21512e-21
-1.09698e-20
-9.63011e-20
-1.54718e-18
2.12959e-18
-5.84508e-17
4.30079e-17
-5.76962e-16
1.07823e-16
-1.37653e-15
7.6675e-17
-8.31913e-16
3.23645e-15
-1.25541e-14
4.3633e-15
-9.17255e-16
5.17832e-12
-3.83144e-11
5.83368e-12
-4.2996e-11
1.50134e-12
-2.21304e-11
2.82421e-12
-3.2076e-12
7.27532e-10
-7.39723e-10
4.37076e-08
-3.24299e-10
3.48424e-08
-6.68542e-08
3.02359e-08
-9.11643e-08
4.32024e-08
-9.69007e-08
2.37659e-09
-3.63422e-08
7.37274e-09
2.26014e-10
1.14031e-08
5.13472e-09
1.02515e-08
1.50078e-08
-1.30524e-24
3.83703e-25
-3.35201e-24
-5.35476e-23
-7.19212e-22
-8.2207e-21
3.57308e-20
-1.57675e-18
5.17671e-18
-6.02746e-17
4.66892e-17
-5.171e-16
1.5718e-16
-1.2865e-15
1.23538e-16
-8.5424e-16
2.94727e-15
-3.00312e-15
2.71002e-14
-2.43482e-14
4.65049e-12
-7.94772e-14
4.0532e-12
-7.48982e-14
2.04683e-12
-1.06015e-13
2.84611e-12
-4.45818e-11
3.33218e-10
-8.52727e-12
1.12501e-11
-2.4223e-12
4.35751e-09
-4.47783e-14
7.17706e-09
-3.88096e-16
9.41826e-10
-7.05812e-08
2.13464e-10
-4.44872e-08
1.35141e-09
-4.06484e-09
3.32788e-09
2.69974e-09
7.28821e-09
5.85383e-09
-5.27644e-27
-3.89585e-26
3.68166e-25
-1.96011e-23
1.81067e-22
-3.58283e-21
1.12185e-19
-1.23784e-18
7.59362e-18
-4.88893e-17
7.1398e-17
-2.8048e-16
1.86866e-16
-9.13344e-16
1.60862e-16
-7.8289e-16
5.93648e-16
-2.36926e-16
6.10285e-15
-8.00021e-14
6.18493e-15
-1.29577e-13
6.29396e-15
-1.25335e-13
7.83378e-15
-4.90323e-14
1.40899e-11
-3.0344e-11
2.20029e-12
-2.74776e-11
3.96032e-14
-2.61223e-13
3.00654e-16
-5.27842e-15
9.93181e-18
-3.61135e-16
4.74179e-10
-1.64694e-10
7.05071e-09
-1.37479e-08
1.65559e-08
-1.14153e-08
4.62497e-08
6.87749e-10
1.26241e-08
9.49467e-08
1.27169e-27
-1.68653e-25
5.90689e-25
-5.12807e-24
1.6698e-22
-1.01725e-21
1.11221e-19
-5.41298e-19
6.09831e-18
-2.0857e-17
4.00326e-17
-1.08893e-16
1.1516e-16
-2.99437e-16
1.48787e-16
-5.46306e-16
1.88099e-16
-2.43652e-16
3.10602e-14
-8.15958e-14
3.49523e-14
-1.53549e-13
6.2676e-14
-2.37649e-13
5.29327e-13
-4.00448e-13
9.16029e-12
-3.41144e-13
2.64065e-13
-2.14129e-14
4.8785e-15
-2.60295e-15
4.36075e-16
-1.14729e-15
1.21243e-16
-4.52026e-16
-1.64693e-10
-8.89167e-16
1.1988e-10
-3.68411e-16
1.3145e-09
-3.45019e-16
1.18046e-09
-3.45624e-16
7.45113e-12
2.44479e-09
6.90616e-27
-1.21902e-25
2.04815e-25
-9.66724e-25
6.33402e-23
-2.26772e-22
5.37198e-20
-1.52214e-19
2.60797e-18
-5.58734e-18
1.54966e-17
-2.8252e-17
4.97439e-17
-7.96178e-17
1.03937e-16
-3.64052e-16
1.42596e-16
-2.55325e-16
3.888e-14
-8.96408e-15
8.95336e-14
-1.52418e-13
1.17041e-13
-3.55624e-13
1.58314e-13
-3.7778e-13
4.23833e-15
-1.8781e-13
4.77257e-16
-1.85518e-14
4.33092e-16
-3.6446e-15
3.5668e-16
-1.85432e-15
1.15056e-16
-6.69248e-16
2.81169e-17
-3.03311e-16
1.17936e-17
-2.33298e-16
1.97696e-17
-2.29652e-16
4.62733e-17
-2.44234e-16
-4.32506e-16
7.39016e-12
3.54298e-27
-1.68223e-26
4.0821e-26
-1.2946e-25
1.69539e-23
-5.40975e-23
1.61989e-20
-3.08758e-20
7.1662e-19
-1.08193e-18
4.04394e-18
-5.06274e-18
1.48553e-17
-1.98162e-17
6.47394e-17
-1.72147e-16
9.32852e-17
-2.60497e-16
5.02212e-15
-4.31456e-16
8.43907e-14
-4.85355e-14
1.47879e-13
-2.99568e-13
1.38532e-13
-2.80932e-13
1.60815e-14
-1.18173e-13
1.75056e-15
-1.95038e-14
8.59145e-16
-3.29975e-15
4.56934e-16
-1.14194e-15
1.33049e-16
-3.43578e-16
5.67691e-17
-1.51423e-16
5.2784e-17
-1.13667e-16
1.23607e-16
-1.42279e-16
2.66446e-16
-2.06804e-16
-3.25465e-16
3.42757e-16
4.0055e-28
-1.57514e-27
5.91745e-27
-1.29281e-26
4.77606e-24
-1.84357e-23
3.42472e-21
-4.67564e-21
1.40156e-19
-1.53525e-19
7.5389e-19
-7.02152e-19
4.02184e-18
-4.56321e-18
4.03661e-17
-5.39767e-17
8.50637e-17
-1.67548e-16
4.01174e-16
-1.09999e-15
1.92785e-14
-6.93359e-15
6.63167e-14
-2.9665e-14
5.02558e-14
-2.52409e-14
2.40263e-14
-1.12784e-14
2.40403e-15
-2.10571e-15
4.21401e-16
-4.47817e-16
1.55841e-16
-1.90834e-16
6.40389e-17
-6.7739e-17
5.65774e-17
-2.38137e-17
8.39697e-17
-2.26717e-17
1.76293e-16
-3.41991e-17
4.19317e-16
-6.40314e-17
-1.37353e-16
9.72918e-16
3.58619e-29
-1.32816e-28
6.22204e-28
-1.26945e-27
1.80835e-24
-6.91995e-24
5.28385e-22
-5.38281e-22
1.9923e-20
-1.56878e-20
1.08388e-19
-7.45078e-20
9.80597e-19
-9.85151e-19
1.34523e-17
-1.48433e-17
5.64918e-17
-9.07317e-17
5.50825e-16
-4.40649e-16
1.71272e-15
-9.26106e-17
3.14541e-15
-5.25881e-17
2.5666e-15
-2.71146e-17
1.15745e-15
-1.13325e-17
1.84695e-16
-3.92832e-17
6.32138e-17
-4.02678e-17
3.32561e-17
-2.51599e-17
1.19893e-17
-6.72061e-18
8.71045e-18
-2.45484e-18
1.13064e-17
-3.44792e-18
3.12456e-17
-1.07253e-17
9.71693e-17
-3.09975e-17
-9.9927e-17
3.41407e-16
2.89605e-30
-9.4275e-30
6.56811e-29
-1.86533e-28
6.77822e-25
-1.842e-24
6.09377e-23
-4.91527e-23
2.03122e-21
-1.11265e-21
1.17455e-20
-5.70184e-21
2.17564e-19
-1.74283e-19
3.83029e-18
-3.10076e-18
2.8212e-17
-2.70264e-17
7.8195e-17
-4.66807e-17
1.81453e-17
-5.37931e-17
4.92166e-18
-3.9968e-17
4.86171e-18
-2.79258e-17
4.96508e-18
-1.2307e-17
1.01885e-17
-4.65125e-18
1.11192e-17
-2.40491e-18
5.43953e-18
-1.43623e-18
1.21984e-18
-5.58343e-19
1.04253e-18
-4.90895e-19
2.62304e-18
-1.15641e-18
1.33753e-17
-5.42388e-18
5.43477e-17
-1.9281e-17
-7.98139e-17
2.43512e-16
1.97017e-31
-5.23138e-31
1.04361e-29
-2.88826e-29
1.66723e-25
-2.74201e-25
5.48177e-24
-3.81167e-24
1.4293e-22
-5.06709e-23
9.04946e-22
-3.06407e-22
3.81348e-20
-2.34181e-20
7.68251e-19
-4.04663e-19
5.90759e-18
-2.14703e-18
1.03269e-17
-1.10942e-17
1.46398e-17
-2.9579e-17
1.39764e-17
-2.84327e-17
8.71683e-18
-1.92931e-17
2.88677e-18
-6.4204e-18
7.45308e-19
-9.63547e-19
5.05147e-19
-2.70244e-19
3.20613e-19
-1.27725e-19
2.09866e-19
-8.05748e-20
2.34033e-19
-1.0958e-19
1.14627e-18
-4.80216e-19
7.44169e-18
-2.92518e-18
3.4028e-17
-1.21641e-17
-6.09538e-17
1.78679e-16
1.05049e-32
-1.92669e-32
1.61325e-30
-2.41222e-30
2.28992e-26
-2.13257e-26
4.10134e-25
-2.43353e-25
6.41919e-24
-1.31207e-24
4.9178e-23
-1.46317e-23
4.98854e-21
-2.39042e-21
9.16667e-20
-3.95399e-20
5.24954e-19
-2.45464e-19
3.16714e-18
-2.12907e-18
6.57934e-18
-5.86464e-18
6.90058e-18
-4.74623e-18
3.7129e-18
-2.39918e-18
6.90419e-19
-7.9953e-19
1.02699e-19
-1.85674e-19
4.77857e-20
-5.08023e-20
3.25469e-20
-1.55979e-20
3.20342e-20
-1.24536e-20
7.11068e-20
-2.77979e-20
5.32981e-19
-2.06336e-19
4.03824e-18
-1.56266e-18
2.06852e-17
-7.43117e-18
-4.34604e-17
1.24588e-16
3.7345e-34
-4.37316e-34
1.28164e-31
-7.27985e-32
1.68567e-27
-6.984e-28
2.41718e-26
-8.99734e-27
1.60499e-25
-1.7993e-26
2.50072e-24
-1.50728e-24
4.96952e-22
-2.14941e-22
8.9218e-21
-4.13826e-21
6.2385e-20
-2.38539e-20
5.66114e-19
-2.01654e-19
1.07948e-18
-3.06846e-19
8.07223e-19
-2.81522e-19
3.26787e-19
-1.99476e-19
9.32114e-20
-9.90625e-20
2.24652e-20
-3.04318e-20
7.1736e-21
-5.09999e-21
4.5177e-21
-8.15718e-22
4.87524e-21
-1.10823e-21
2.19901e-20
-8.01816e-21
2.35755e-19
-8.81765e-20
2.10398e-18
-7.93331e-19
1.20131e-17
-4.28905e-18
-3.0834e-17
8.31802e-17
8.49194e-36
-3.48526e-35
3.70499e-33
-9.46252e-35
5.3224e-29
-1.00617e-31
7.26544e-28
-6.04392e-30
1.85081e-27
-2.55912e-28
2.73411e-25
-1.96351e-25
4.40035e-23
-1.84957e-23
9.22442e-22
-4.48374e-22
5.92715e-21
-2.86057e-21
4.16871e-20
-9.96797e-21
5.33122e-20
-2.20422e-20
5.19026e-20
-2.38442e-20
3.48843e-20
-2.07777e-20
1.51481e-20
-1.29114e-20
3.48089e-21
-4.62304e-21
4.42148e-22
-6.63577e-22
2.80476e-22
-1.3425e-22
5.94306e-22
-2.80588e-22
7.46804e-21
-2.86523e-21
9.94958e-20
-3.66134e-20
1.02045e-18
-3.74031e-19
6.64691e-18
-2.41719e-18
-2.51467e-17
5.87209e-17
6.60273e-37
-3.4745e-37
3.65475e-36
-6.1617e-36
8.26635e-33
-1.44988e-32
6.75116e-31
-8.93902e-31
3.65161e-29
-3.71682e-29
3.42314e-26
-9.18531e-27
3.68522e-24
-1.12591e-24
9.8027e-23
-3.27915e-23
6.47349e-22
-2.5539e-22
2.20102e-21
-7.73659e-22
4.12552e-21
-1.85073e-21
4.64239e-21
-2.06692e-21
4.09365e-21
-1.80621e-21
2.19757e-21
-1.11111e-21
5.37155e-22
-3.88354e-22
6.15033e-23
-5.51107e-23
4.75012e-23
-2.39121e-23
1.83566e-22
-7.70888e-23
2.67464e-21
-9.84961e-22
3.96314e-20
-1.44029e-20
4.57541e-19
-1.64395e-19
3.72554e-18
-1.48915e-18
-2.46728e-17
4.90123e-17
6.21053e-39
-7.38683e-40
3.01263e-37
-7.02598e-38
1.18407e-33
-4.95145e-34
9.90922e-32
-3.2798e-32
5.22951e-30
-1.5045e-30
1.47655e-27
-8.40222e-30
2.141e-25
-2.42481e-26
6.90864e-24
-1.27888e-24
5.42164e-23
-1.18769e-23
1.67657e-22
-4.16092e-23
3.42129e-22
-1.07855e-22
3.88012e-22
-1.17493e-22
3.37606e-22
-9.87792e-23
1.74776e-22
-5.60619e-23
4.093e-23
-1.75665e-23
7.99913e-24
-2.73173e-24
8.04734e-24
-2.87356e-24
5.36513e-23
-2.11305e-23
8.86367e-22
-3.31173e-22
1.48291e-20
-5.44166e-21
1.93035e-19
-7.06599e-20
2.35372e-18
-1.09562e-18
-2.625e-17
4.68884e-17
1.29128e-41
-1.00868e-41
3.41836e-39
-2.85442e-39
3.68149e-35
-2.37262e-37
3.30203e-33
-4.26097e-36
1.7578e-31
-2.3403e-34
1.17784e-30
-1.49667e-32
4.41324e-27
-8.357e-30
2.58779e-25
-1.0291e-26
2.44386e-24
-1.72557e-25
8.78693e-24
-9.75235e-25
1.84523e-23
-2.30475e-24
2.07875e-23
-2.31641e-24
1.68401e-23
-1.8618e-24
7.78529e-24
-1.11131e-24
1.65781e-24
-4.26274e-25
7.38852e-25
-1.62445e-25
1.0326e-24
-4.27737e-25
1.54786e-23
-6.2172e-24
2.86779e-22
-1.11541e-22
5.33381e-21
-2.04557e-21
8.02453e-20
-3.13463e-20
1.72863e-18
-8.98858e-19
-2.75716e-17
4.65186e-17
1.72364e-43
-1.54007e-43
1.34366e-40
-2.42154e-42
1.64574e-38
-1.61201e-40
4.02768e-37
-1.87365e-38
2.84599e-35
-1.27025e-36
2.28203e-33
-8.76307e-34
1.47161e-30
-1.55199e-32
2.04647e-27
-2.2793e-29
3.61505e-26
-4.52852e-28
1.9682e-25
-2.22545e-27
3.45875e-25
-5.51163e-27
3.86078e-25
-7.28517e-27
2.91972e-25
-7.10362e-27
1.54564e-25
-5.97577e-27
5.43644e-26
-4.53374e-27
4.2108e-26
-7.3769e-27
2.23608e-25
-8.88013e-26
4.5103e-24
-1.84824e-24
9.26712e-23
-3.88644e-23
1.91774e-21
-8.00548e-22
3.42227e-20
-1.44658e-20
1.33268e-18
-7.08018e-19
-2.40062e-17
4.34577e-17
2.52915e-45
-1.59094e-46
1.04237e-43
-2.27376e-45
1.12298e-41
-4.97813e-42
1.7663e-39
-2.96597e-40
1.51283e-37
-1.69078e-38
1.26022e-34
-1.67434e-37
2.56814e-33
-1.02075e-34
4.37812e-30
-8.93389e-32
8.99491e-29
-2.331e-30
4.29654e-28
-1.43343e-29
9.5115e-28
-4.44081e-29
1.16131e-27
-8.51437e-29
1.23156e-27
-1.22149e-28
1.04962e-27
-1.24469e-28
9.88917e-28
-1.47676e-28
2.67985e-27
-1.01146e-27
5.3088e-26
-2.27014e-26
1.29222e-24
-5.72942e-25
3.10266e-23
-1.44644e-23
7.17521e-22
-3.32039e-22
1.49052e-20
-6.70781e-21
9.27199e-19
-4.65053e-19
-1.60297e-17
3.06047e-17
2.4988e-48
-3.64717e-50
9.49502e-47
-1.71818e-49
3.35407e-43
-3.05895e-46
2.66984e-41
-2.44474e-44
1.83251e-39
-8.46745e-43
2.19511e-38
-3.49632e-41
1.6654e-35
-7.68839e-39
1.65269e-32
-4.96265e-37
4.54546e-31
-1.69301e-33
2.79106e-30
-5.29392e-32
8.43742e-30
-3.29509e-31
1.59531e-29
-1.01449e-30
2.10062e-29
-1.41352e-30
2.36326e-29
-1.44733e-30
3.6542e-29
-7.77493e-30
4.86927e-28
-2.16408e-28
1.33613e-26
-6.2141e-27
3.8495e-25
-1.92217e-25
1.10302e-23
-5.70769e-24
2.8077e-22
-1.41231e-22
6.38023e-21
-2.99523e-21
5.21266e-19
-2.46715e-19
-9.50184e-18
1.75794e-17
5.51518e-52
-1.10628e-52
6.39148e-51
-4.6123e-51
1.95668e-47
-6.19394e-50
2.08576e-45
-1.15165e-47
9.03537e-44
-2.67922e-45
4.59426e-42
-6.46182e-43
1.18415e-39
-9.47411e-42
8.84456e-38
-4.50891e-41
3.41133e-34
-8.75806e-37
1.11271e-32
-1.45612e-34
6.82261e-32
-1.19523e-33
1.82282e-31
-4.10978e-33
2.30821e-31
-5.95954e-33
2.62888e-31
-3.19377e-32
3.01624e-30
-1.40743e-30
1.06962e-28
-5.11778e-29
3.51787e-27
-1.90014e-27
1.22979e-25
-6.80113e-26
4.077e-24
-2.24674e-24
1.10072e-22
-5.7642e-23
2.58396e-21
-1.25118e-21
2.39805e-19
-1.11646e-19
-4.97463e-18
9.13946e-18
1.60957e-54
-2.44651e-57
1.8086e-52
-1.70724e-55
3.68174e-51
-2.47863e-52
9.52643e-49
-1.09088e-50
2.7832e-46
-7.67632e-49
7.89412e-44
-1.62167e-47
1.22369e-42
-6.19349e-45
6.96692e-42
-1.07782e-42
1.69426e-37
-7.05188e-41
2.98215e-35
-3.7724e-38
2.39943e-34
-6.63816e-37
7.11007e-34
-2.95594e-36
1.16576e-33
-1.38417e-34
1.03977e-32
-5.0941e-33
5.81487e-31
-2.56417e-31
2.425e-29
-1.36764e-29
1.02063e-27
-6.02711e-28
4.03414e-26
-2.28168e-26
1.46231e-24
-8.05792e-25
4.04501e-23
-2.11088e-23
9.67956e-22
-4.79872e-22
9.51393e-20
-4.4219e-20
-2.26208e-18
4.15048e-18
3.4515e-59
-3.85535e-59
7.01141e-57
-1.9598e-56
1.44625e-53
-1.22673e-54
8.58474e-52
-3.3138e-52
7.39224e-50
-8.02902e-51
2.00347e-48
-1.98408e-48
8.66675e-46
-7.7843e-47
1.77909e-43
-5.28903e-44
1.34488e-41
-6.93789e-42
7.53639e-39
-7.1784e-41
1.33509e-37
-5.84361e-39
6.92302e-37
-2.3678e-37
4.17647e-35
-2.40947e-35
1.75626e-33
-7.44001e-34
1.0071e-31
-5.70886e-32
6.07094e-30
-3.45232e-30
2.96466e-28
-1.68231e-28
1.21581e-26
-6.4287e-27
4.66658e-25
-2.42537e-25
1.3143e-23
-6.63961e-24
3.30627e-22
-1.66429e-22
3.30004e-20
-1.52335e-20
-8.90363e-19
1.6322e-18
5.31782e-61
-1.10374e-60
7.82332e-58
-9.66367e-58
7.02001e-56
-8.72126e-56
2.6407e-53
-5.24772e-53
7.7172e-52
-8.63382e-52
2.36749e-49
-9.50007e-50
1.0973e-47
-1.23317e-47
8.46489e-45
-4.51276e-45
1.21614e-42
-4.47796e-43
1.39426e-41
-9.02153e-42
1.33722e-39
-9.12915e-40
6.08868e-38
-3.07225e-38
6.97398e-36
-2.35724e-36
2.39165e-34
-1.26562e-34
2.09868e-32
-1.16268e-32
1.37382e-30
-6.49241e-31
7.34442e-29
-3.63192e-29
3.01842e-27
-1.40682e-27
1.23616e-25
-5.87007e-26
3.65586e-24
-1.781e-24
1.01776e-22
-5.18512e-23
9.92237e-21
-4.49808e-21
-2.9714e-19
5.54926e-19
1.46088e-62
-6.02284e-63
3.46418e-59
-2.83515e-60
4.82223e-57
-5.93408e-57
3.88311e-54
-2.46633e-54
7.67452e-53
-2.0945e-53
1.00466e-50
-6.29267e-52
1.6539e-48
-6.55616e-49
6.57311e-46
-2.88083e-47
7.1484e-44
-1.28751e-45
1.6989e-42
-3.99877e-43
1.96463e-40
-4.82617e-41
7.21867e-39
-1.94771e-39
6.23174e-37
-3.1832e-37
3.83575e-35
-2.2787e-35
3.79816e-33
-1.58996e-33
2.26935e-31
-8.67149e-32
1.39346e-29
-5.85554e-30
5.80536e-28
-2.37554e-28
2.63907e-26
-1.16508e-26
8.70753e-25
-4.18066e-25
2.80994e-23
-1.45018e-23
2.55242e-21
-1.12463e-21
-8.2977e-20
1.60172e-19
7.73772e-65
-2.69966e-64
9.74944e-62
-2.63113e-61
2.95306e-58
-2.65624e-59
1.51304e-55
-1.56489e-58
1.56699e-54
-5.19275e-56
6.39481e-53
-9.03643e-53
7.44829e-50
-2.5733e-51
3.65423e-48
-1.88607e-49
1.98772e-46
-1.63538e-46
6.71981e-44
-8.08542e-45
8.98526e-42
-1.30144e-42
4.12299e-40
-1.48363e-40
7.93452e-38
-4.96235e-38
6.1697e-36
-2.70805e-36
4.52808e-34
-1.50344e-34
2.69332e-32
-1.00293e-32
1.98276e-30
-7.57787e-31
8.67626e-29
-3.38628e-29
4.65681e-27
-2.0583e-27
1.81722e-25
-8.7426e-26
6.92339e-24
-3.55929e-24
5.554e-22
-2.37618e-22
-1.90965e-20
3.88703e-20
3.32786e-66
-1.40768e-66
8.2755e-63
-1.50505e-63
1.06412e-60
-1.29179e-62
8.54884e-60
-8.64431e-60
3.81724e-57
-2.10119e-57
8.42277e-54
-4.79583e-54
2.6036e-52
-1.17304e-52
2.26331e-50
-1.27036e-50
2.3327e-47
-9.65902e-48
1.24855e-45
-7.50145e-46
2.29531e-43
-1.66324e-43
2.92095e-41
-1.6313e-41
1.08045e-38
-3.3968e-39
6.27221e-37
-1.9085e-37
3.78324e-35
-1.35538e-35
2.80761e-33
-1.30901e-33
2.27106e-31
-9.06887e-32
1.09906e-29
-4.63266e-30
7.29722e-28
-3.37605e-28
3.3344e-26
-1.553e-26
1.47236e-24
-7.16437e-25
1.01627e-22
-4.2355e-23
-3.55016e-21
7.78879e-21
1.62044e-68
-3.48244e-69
3.84903e-65
-1.66299e-68
4.74769e-64
-6.97822e-65
4.69665e-61
-5.89155e-61
1.38506e-58
-6.62907e-59
3.68302e-55
-5.48114e-58
1.05292e-53
-1.27391e-54
1.37819e-51
-6.9503e-52
1.15054e-48
-1.80485e-50
1.03453e-46
-2.85267e-47
2.6293e-44
-1.1795e-44
2.79609e-42
-9.08805e-43
6.1097e-40
-4.86064e-41
3.77431e-38
-7.91096e-39
3.00544e-36
-1.19545e-36
3.21457e-34
-1.44796e-34
2.36304e-32
-9.43864e-33
1.3091e-30
-5.47156e-31
1.03154e-28
-4.41937e-29
5.05134e-27
-2.11998e-27
2.50163e-25
-1.07798e-25
1.54567e-23
-6.23726e-24
-5.18498e-22
1.25226e-21
3.77293e-71
-1.45995e-71
3.49212e-70
-1.7267e-70
2.41063e-66
-3.61302e-66
2.68502e-62
-2.25917e-64
3.4578e-60
-2.25262e-62
3.40432e-59
-6.52491e-60
9.84693e-56
-2.14161e-57
6.19324e-53
-4.72655e-54
1.80452e-51
-6.64237e-52
3.25013e-48
-2.90308e-50
1.50722e-45
-5.30502e-47
1.25901e-43
-3.00106e-45
7.31362e-42
-9.71048e-43
1.33013e-39
-2.87739e-40
2.22135e-37
-4.41664e-38
2.91917e-35
-5.81675e-36
2.04313e-33
-5.40587e-34
1.28232e-31
-3.76732e-32
1.11078e-29
-3.44511e-30
5.6942e-28
-2.08517e-28
3.08606e-26
-1.1255e-26
1.89235e-24
-7.33499e-25
-5.75246e-23
1.55013e-22
1.45509e-73
-1.29141e-76
3.33724e-72
-2.51014e-72
1.03371e-67
-1.13463e-69
8.23455e-66
-4.55932e-68
1.02399e-63
-2.97005e-65
3.66959e-61
-3.31514e-61
1.38397e-58
-5.30306e-59
3.46654e-55
-8.65142e-57
5.71762e-53
-4.77663e-53
2.68222e-51
-4.29363e-52
5.42691e-48
-1.17741e-49
3.3848e-46
-2.77425e-47
1.25529e-43
-7.19187e-44
3.96752e-41
-6.64045e-42
6.52366e-39
-2.79846e-40
9.23632e-37
-2.07723e-38
9.31487e-35
-9.84182e-36
7.02146e-33
-1.27324e-33
6.87137e-31
-1.36324e-31
4.49347e-29
-1.47222e-29
2.56665e-27
-7.91567e-28
1.78958e-25
-6.74049e-26
-4.72391e-24
1.40791e-23
1.14046e-78
-4.3088e-81
4.10746e-74
-1.58281e-77
2.53402e-71
-4.49269e-74
1.33692e-69
-3.86254e-70
1.08883e-66
-1.61678e-67
1.48073e-62
-5.18102e-65
2.72212e-60
-1.14205e-61
5.04372e-58
-4.00939e-60
3.08243e-54
-9.52824e-58
3.06227e-53