/*--------------------------------*- C++ -*----------------------------------*\
  =========                 |
  \\      /  F ield         | OpenFOAM: The Open Source CFD Toolbox
   \\    /   O peration     | Website:  https://openfoam.org
    \\  /    A nd           | Version:  13
     \\/     M anipulation  |
\*---------------------------------------------------------------------------*/
FoamFile
{
    format      ascii;
    class       volScalarField;
    location    "0.35";
    object      p;
}
// * * * * * * * * * * * * * * * * * * * * * * * * * * * * * * * * * * * * * //

dimensions      [1 -1 -2 0 0 0 0];

internalField   nonuniform List<scalar> 
2268
(
1080.93
1084.65
1095.5
1100.74
1100.51
1095.4
1088.68
1082.93
1079.48
1078.98
1081.98
1089.12
1101.23
1119.42
1144.68
1177.95
1219.38
1266.96
1314.23
1348.63
1354.94
1346.35
1401.52
1020.98
1024.65
1035.32
1040.57
1040.28
1035.2
1028.56
1022.92
1019.52
1019.02
1021.97
1029.02
1040.92
1058.43
1082.5
1114.15
1154.02
1201.12
1250.44
1287.87
1298.6
1275.82
1337.95
959.881
963.558
973.887
979.11
978.711
973.68
967.222
961.754
958.464
957.967
960.816
967.659
979.256
996.423
1020.07
1050.81
1088.59
1132.04
1177.78
1216.53
1235.19
1226.65
1287.96
897.798
901.378
911.313
916.423
915.865
910.91
904.707
899.495
896.345
895.836
898.522
905.067
916.245
932.885
955.798
985.458
1021.7
1062.83
1105.66
1144.46
1173.57
1189.88
1254.01
834.903
838.209
847.704
852.609
851.847
846.989
841.094
836.183
833.184
832.629
835.078
841.222
851.855
867.81
889.858
918.429
953.357
993.208
1035.18
1075.28
1114.01
1150.11
1224.69
771.422
774.181
783.185
787.795
786.796
782.048
776.486
771.879
769.001
768.338
770.462
776.093
786.05
801.179
822.234
849.665
883.413
922.352
964.424
1006.56
1051.48
1099.02
1178.71
707.6
709.495
717.853
722.017
720.745
716.15
710.958
706.647
703.834
702.977
704.669
709.663
718.807
732.962
752.88
779.065
811.659
849.809
892.122
936.211
984.316
1036.17
1113.09
643.626
644.442
651.66
655.117
653.566
649.215
644.465
640.454
637.649
636.498
637.632
641.846
650.026
663.074
681.817
706.562
737.904
775.201
817.485
863.034
912.377
965.261
1024.69
821.953
821.968
821.977
821.996
821.966
821.944
821.924
821.927
821.965
822.041
822.154
822.302
822.474
822.658
822.839
823.003
823.136
823.231
823.277
821.89
821.907
821.914
821.94
821.906
821.883
821.859
821.861
821.899
821.975
822.089
822.238
822.412
822.599
822.782
822.947
823.083
823.178
823.224
821.82
821.839
821.844
821.884
821.842
821.818
821.79
821.789
821.826
821.903
822.018
822.169
822.348
822.539
822.727
822.896
823.034
823.131
823.179
821.748
821.772
821.763
821.831
821.776
821.751
821.715
821.709
821.746
821.824
821.94
822.095
822.28
822.479
822.673
822.849
822.991
823.092
823.14
821.688
821.712
821.672
821.782
821.707
821.681
821.634
821.621
821.659
821.737
821.854
822.015
822.209
822.417
822.622
822.805
822.954
823.059
823.11
821.615
821.652
821.541
821.73
821.64
821.608
821.547
821.524
821.564
821.643
821.761
821.928
822.134
822.356
822.573
822.766
822.923
823.033
823.087
821.07
821.595
821.343
821.695
821.583
821.534
821.451
821.415
821.462
821.541
821.658
821.833
822.054
822.293
822.526
822.732
822.898
823.015
823.073
821.306
821.81
821.065
821.592
821.548
821.452
821.343
821.286
821.352
821.431
821.545
821.73
821.971
822.231
822.482
822.703
822.881
823.006
823.067
543.375
542.389
546.886
549.172
547.296
543.291
539.109
535.409
532.441
530.639
530.686
533.427
539.776
550.668
567.202
589.866
619.594
655.693
697.705
744.564
793.2
840.206
853.473
408.497
403.249
402.675
403.686
401.439
397.342
393.16
389.12
385.277
382.069
380.227
380.611
384.068
390.89
400.303
413.143
441.513
474.988
515.544
562.294
610.638
659.259
705.36
278.969
268.117
258.944
255.9
252.065
246.996
241.965
236.721
231.094
225.54
220.902
218.277
219.498
227.172
241.644
261.488
271.544
296.299
333.899
379.772
427.819
476.095
528.114
162.208
140.399
115.488
107.318
102.88
97.8634
92.7581
87.1537
80.7601
73.7989
66.7459
60.0638
53.9718
51.3518
50.9809
52.5062
57.9571
77.2138
112.916
161.203
215.212
268.523
322.465
73.7339
41.8377
23.6259
23.834
23.4267
21.6677
19.9167
18.4231
16.9903
15.6226
14.4897
13.7135
12.572
12.3661
12.6209
12.882
13.3101
15.0414
18.3506
24.174
34.9716
56.9847
99.043
16.9418
11.6463
11.2941
11.4954
11.5477
11.601
11.68
11.7799
11.9007
12.0427
12.1992
12.3369
12.3552
12.389
12.5737
12.8276
13.0984
13.338
13.5262
13.7084
13.8644
14.501
18.2812
11.1282
11.1375
11.1876
11.2916
11.3615
11.4244
11.5036
11.5977
11.7066
11.829
11.9577
12.076
12.1563
12.2428
12.3921
12.6053
12.8333
13.0639
13.2636
13.3574
13.3639
13.3863
13.5386
10.9823
11.0413
11.0637
11.1106
11.1701
11.2316
11.3079
11.3953
11.4935
11.6008
11.712
11.8186
11.9132
12.0141
12.1395
12.3096
12.4726
12.5692
12.5736
12.6082
12.8219
13.0763
13.4192
10.8096
10.8329
10.8671
10.9132
10.9679
11.0291
11.101
11.1825
11.2729
11.3705
11.4725
11.5745
11.6728
11.7747
11.8803
11.9763
12.0787
12.1737
12.2269
12.2916
12.4461
12.7875
13.1983
10.6159
10.6357
10.668
10.7078
10.7579
10.8166
10.8846
10.9615
11.0462
11.1375
11.2338
11.3331
11.4334
11.5363
11.6389
11.716
11.7971
11.8909
12.0125
12.2664
12.5167
12.7521
13.1272
10.4095
10.4268
10.4553
10.4917
10.5384
10.5943
10.6591
10.7323
10.813
10.9003
10.9933
11.0913
11.1932
11.2988
11.4037
11.5045
11.6086
11.7118
11.8099
12.0639
12.3466
12.5921
12.9086
10.1909
10.2053
10.2308
10.2651
10.3091
10.3624
10.4246
10.495
10.5731
10.658
10.7493
10.8467
10.9498
11.0581
11.1701
11.2851
11.4079
11.5424
11.6794
11.8726
12.1638
12.4008
12.6582
9.96032
9.97271
9.99587
10.0283
10.0702
10.1213
10.1812
10.2495
10.3256
10.409
10.4995
10.5969
10.7013
10.8127
10.931
11.0572
11.1946
11.3471
11.5187
11.724
11.9824
12.2421
12.513
9.71833
9.72932
9.75076
9.78153
9.82162
9.87086
9.92889
9.99538
10.07
10.1523
10.2423
10.34
10.4457
10.5599
10.6834
10.8175
10.9648
11.129
11.3138
11.5255
11.7672
12.0215
12.2879
9.46545
9.4756
9.4957
9.52509
9.56364
9.61124
9.66762
9.73253
9.80576
9.88712
9.97662
10.0745
10.1813
10.2977
10.4247
10.5639
10.7173
10.8877
11.0777
11.29
11.5246
11.7764
12.0443
9.20229
9.2119
9.23094
9.25914
9.29633
9.34245
9.39733
9.46078
9.5327
9.61302
9.70188
9.79963
9.9069
10.0246
10.1536
10.2955
10.4519
10.6247
10.8158
11.0264
11.2564
11.5041
11.7687
8.92934
8.93854
8.95674
8.98386
9.01981
9.06455
9.11797
9.17997
9.25051
9.32962
9.41753
9.51468
9.62177
9.73964
9.86932
10.0119
10.1689
10.3415
10.5311
10.7386
10.9641
11.2068
11.4663
8.64699
8.65585
8.67331
8.69944
8.7342
8.77757
8.82952
8.88999
8.95898
9.03663
9.12322
9.21925
9.3254
9.4425
9.57143
9.71315
9.86874
10.0393
10.2259
10.4292
10.6494
10.8863
11.1397
8.35556
8.3641
8.38089
8.40607
8.43964
8.48162
8.53201
8.59079
8.65804
8.73391
8.81876
8.91311
9.0176
9.13297
9.25996
9.39941
9.55219
9.71925
9.90145
10.0994
10.3135
10.5436
10.7899
8.05537
8.06358
8.07971
8.10393
8.13629
8.17681
8.22552
8.28245
8.34769
8.42146
8.50414
8.59623
8.69835
8.81109
8.93512
9.07111
9.21985
9.38217
9.55882
9.75039
9.95725
10.1796
10.4176
7.74667
7.75454
7.77001
7.79326
7.82435
7.86333
7.91022
7.96509
8.02806
8.09939
8.17946
8.26876
8.3678
8.47711
8.59722
8.72875
8.87238
9.02886
9.19886
9.38293
9.58149
9.7949
10.0235
7.42974
7.43725
7.45204
7.47428
7.50405
7.54137
7.5863
7.63892
7.69936
7.76791
7.84495
7.93092
8.02625
8.13137
8.24674
8.37289
8.51044
8.66006
8.82233
8.99777
9.18686
9.39007
9.60797
7.10487
7.11198
7.12608
7.14726
7.17563
7.21121
7.25403
7.3042
7.36187
7.42732
7.50092
7.58305
7.67407
7.77432
7.8842
8.00415
8.13474
8.27652
8.43
8.59567
8.77406
8.96575
9.17149
6.77235
6.77903
6.79241
6.8125
6.83941
6.87313
6.91372
6.96126
7.01592
7.07798
7.14776
7.22559
7.31175
7.40653
7.51023
7.62325
7.74605
7.87905
8.02271
8.17747
8.34389
8.52263
8.71456
6.43251
6.43875
6.45138
6.47033
6.49571
6.52749
6.56572
6.61047
6.66192
6.72031
6.78593
6.85905
6.93988
7.02864
7.12557
7.23099
7.34523
7.4686
7.60146
7.74419
7.89735
8.06159
8.23782
6.08571
6.09149
6.10335
6.12111
6.1449
6.17465
6.21041
6.25224
6.30029
6.35478
6.41596
6.48402
6.55912
6.64141
6.73107
6.8283
6.93331
7.04628
7.16744
7.29709
7.43571
7.58386
7.74236
5.73234
5.73765
5.74871
5.76525
5.78737
5.81502
5.84821
5.88699
5.9315
5.98191
6.03842
6.10115
6.17021
6.24568
6.32765
6.41623
6.51145
6.61338
6.72207
6.83771
6.96062
7.09114
7.2299
5.37282
5.37767
5.38789
5.40315
5.42356
5.44903
5.47957
5.51521
5.55606
5.60226
5.65392
5.71113
5.77392
5.84232
5.91631
5.99588
6.08093
6.17133
6.26698
6.36788
6.4741
6.58569
6.7029
5.00761
5.01199
5.02135
5.03528
5.05392
5.07715
5.10497
5.13741
5.17453
5.21641
5.26313
5.31469
5.37108
5.43225
5.4981
5.56847
5.6431
5.7217
5.80396
5.88965
5.97852
6.07023
6.16453
4.63719
4.64108
4.64955
4.66212
4.67895
4.6999
4.72496
4.75415
4.78749
4.82501
4.86674
4.91261
4.96256
5.01646
5.07412
5.13524
5.1994
5.26614
5.33494
5.40527
5.47655
5.54796
5.61865
4.26207
4.26544
4.27302
4.28419
4.29918
4.3178
4.34009
4.36601
4.39556
4.42873
4.46548
4.50569
4.54925
4.59595
4.6455
4.69748
4.75132
4.80638
4.86193
4.91717
4.97112
5.02248
5.06973
3.88272
3.88554
3.89223
3.90197
3.9151
3.93139
3.9509
3.97356
3.99936
4.02821
4.06004
4.0947
4.13199
4.17166
4.21331
4.2564
4.30025
4.34405
4.38689
4.4277
4.46514
4.49745
4.52249
3.49955
3.50178
3.5076
3.51588
3.52715
3.54112
3.55786
3.57731
3.5994
3.62403
3.65106
3.68031
3.71153
3.74441
3.77847
3.81307
3.84742
3.88059
3.91152
3.93892
3.96116
3.97613
3.98118
3.113
3.1146
3.1196
3.1264
3.13582
3.14749
3.16152
3.17783
3.1963
3.21681
3.2392
3.26322
3.28863
3.31503
3.34189
3.36848
3.39395
3.4173
3.43735
3.45268
3.46144
3.46127
3.44927
2.72367
2.72459
2.72881
2.73413
2.74176
2.75119
2.76258
2.77583
2.79081
2.80736
2.82528
2.84432
2.86419
2.88447
2.90457
2.92373
2.94106
2.95554
2.96594
2.97074
2.96799
2.95525
2.92952
2.33205
2.33223
2.33573
2.3396
2.34551
2.35281
2.36167
2.37198
2.3836
2.39635
2.41001
2.42433
2.43897
2.45351
2.46734
2.47969
2.48968
2.49631
2.49835
2.49427
2.48212
2.45948
2.42343
1.93798
1.93731
1.94018
1.94268
1.94697
1.95225
1.95869
1.96618
1.97456
1.98366
1.99325
2.00306
2.01276
2.02191
2.02991
2.03603
2.03944
2.03917
2.03407
2.02263
2.00301
1.97296
1.92978
1.54113
1.5395
1.54183
1.54308
1.54583
1.5492
1.55331
1.55806
1.5633
1.56888
1.57454
1.58002
1.585
1.58905
1.59163
1.59205
1.58954
1.58322
1.57199
1.55451
1.52908
1.49373
1.44606
1.14383
1.14129
1.1431
1.1433
1.1446
1.14618
1.14808
1.15022
1.1525
1.15473
1.15668
1.1581
1.15867
1.15804
1.15572
1.15107
1.14341
1.13195
1.11572
1.09355
1.06397
1.02527
0.975418
0.750438
0.747373
0.748563
0.747915
0.747892
0.747828
0.747719
0.747503
0.747075
0.746266
0.744852
0.742596
0.739251
0.734509
0.727937
0.71899
0.707062
0.6915
0.671508
0.646064
0.613941
0.573736
0.523795
0.356348
0.353095
0.353388
0.351986
0.350668
0.349019
0.346984
0.344489
0.341431
0.337657
0.332985
0.32722
0.32015
0.311504
0.300924
0.287974
0.272171
0.25298
0.229749
0.201665
0.167775
0.127027
0.0782328
-0.0561901
-0.0605411
-0.0612506
-0.0635946
-0.066402
-0.0699103
-0.0742023
-0.0793755
-0.0855348
-0.0927866
-0.10125
-0.111085
-0.122506
-0.135762
-0.151107
-0.168818
-0.189252
-0.212868
-0.240174
-0.27169
-0.308005
-0.349818
-0.397888
788.563
860.585
838.019
818.08
730.616
735.806
712.243
712.945
552.892
555.259
552.122
555.816
355.171
370.479
386.049
402.6
136.752
159.609
181.874
202.817
23.9206
28.529
34.5821
41.5463
13.8296
14.037
14.2741
14.5748
13.7213
13.9187
14.1047
14.2747
13.5192
13.7286
13.9275
14.1183
13.4433
13.6422
13.8316
14.0138
13.2157
13.4045
13.5766
13.744
12.8835
13.0407
13.2054
13.3748
12.731
12.8736
13.0229
13.1772
12.5014
12.647
12.7957
12.9475
12.2562
12.3967
12.5412
12.6893
11.9762
12.1135
12.2547
12.3995
11.6697
11.8042
11.9424
12.0843
11.3384
11.4698
11.6049
11.7437
10.9831
11.111
11.2426
11.378
10.6046
10.7284
10.8561
10.9876
10.2033
10.3226
10.4457
10.5728
9.77966
9.89367
10.0116
10.1334
9.33387
9.44181
9.55362
9.66932
8.86618
8.96703
9.07169
9.18017
8.37699
8.46958
8.5658
8.66571
7.86718
7.95012
8.03637
8.126
7.33836
7.41018
7.48472
7.56203
6.79316
6.85245
6.91357
6.97651
6.23516
6.28083
6.32715
6.37406
5.66885
5.70023
5.73092
5.76073
5.09954
5.1166
5.13153
5.14398
4.53303
4.53659
4.5367
4.53278
3.97465
3.9664
3.95368
3.93579
3.42857
3.41068
3.38775
3.35906
2.89783
2.87267
2.84225
2.80592
2.38398
2.35386
2.31856
2.27749
1.88557
1.85263
1.81478
1.77151
1.39959
1.36562
1.32718
1.28387
0.928598
0.894993
0.857534
0.815942
0.478387
0.44629
0.411056
0.372468
0.0354467
0.00557153
-0.0268234
-0.0618803
-0.438396
-0.466129
-0.495649
-0.527048
819.292
821.308
820.407
820.977
821.596
821.309
821.172
821.074
821.183
821.264
821.352
821.553
821.832
822.132
822.418
822.666
822.865
823.004
823.073
765.59
806.216
816.991
819.403
821.52
820.908
820.714
820.609
820.963
820.967
820.976
821.247
821.618
822.003
822.35
822.646
822.881
823.046
823.129
577.581
640.521
779.112
714.413
792.572
820.388
818.469
819.715
820.347
820.328
820.376
820.794
821.332
821.869
822.313
822.662
822.941
823.143
823.246
427.598
459.689
527.157
486.611
593.754
746.31
731.85
772.521
805.774
819.377
819.35
820.114
820.964
821.695
822.323
822.73
823.056
823.305
823.438
237.11
277.678
315.901
340.546
392.632
469.882
480.12
528.064
631.695
729.627
774.796
812.123
820.446
821.699
822.397
822.856
823.226
823.548
823.728
56.7596
83.7219
114.334
143.367
175.958
215.26
244.983
282.316
362.58
453.342
543.215
687.199
787.954
820.495
822.646
823.029
823.41
823.882
824.149
15.4527
18.6936
22.7777
27.1345
32.7944
40.7025
47.7744
58.2756
97.3791
180.403
282.935
432.448
607.625
775.68
820.7
823.094
823.573
824.305
824.764
14.5174
14.9562
15.4635
15.9602
16.3628
16.9403
17.8233
19.1042
21.4073
28.8036
50.0749
145.853
348.303
584.284
778.132
821.601
823.72
824.958
825.731
14.4261
14.8635
15.3555
15.8192
16.1207
16.3766
16.9391
17.48
17.8676
18.3853
19.9625
26.6552
90.5975
316.816
595.793
800.808
823.702
826.021
827.352
14.2948
14.6416
15.028
15.484
15.8951
16.2109
16.5683
16.9947
17.4816
17.9297
18.4124
19.3341
22.9584
94.6058
354.815
681.702
825.946
827.58
829.793
14.025
14.4116
14.7703
15.1712
15.5731
15.943
16.3407
16.8068
17.3244
17.8608
18.4516
19.1599
19.9303
24.0888
118.353
511.35
798.255
829.501
833.037
13.6649
14.0811
14.492
14.9047
15.3233
15.7505
16.2021
16.6937
17.2248
17.8023
18.433
19.113
19.825
19.7807
23.6749
354.013
749.457
837.155
839.106
13.4424
13.8361
14.2473
14.6628
15.0878
15.5316
16.0041
16.515
17.0658
17.6518
18.2589
18.8956
19.6549
20.1946
21.6661
165.742
686.446
844.488
851.074
13.2078
13.5905
13.9897
14.4016
14.8302
15.2833
15.7675
16.2874
16.8434
17.4308
18.0365
18.6536
19.3759
19.9099
19.7766
31.9947
632.102
854.731
869.05
12.9421
13.3158
13.7078
14.1182
14.5496
15.0076
15.4965
16.0178
16.571
17.1558
17.7671
18.3899
19.083
19.7248
19.9213
21.6438
590.14
863.978
886.891
12.6479
13.0151
13.4023
13.8102
14.2413
14.6998
15.1884
15.7074
16.2554
16.8349
17.4475
18.0815
18.7603
19.5176
19.8584
21.4582
525.11
873.258
906.522
12.328
12.6893
13.0712
13.4751
13.9033
14.3591
14.8439
15.3576
15.9003
16.4748
17.0877
17.7353
18.419
19.2533
19.6992
21.2005
427.434
888.064
932.979
11.9823
12.337
12.7129
13.1114
13.5346
13.9851
14.4634
14.9693
15.5051
16.0752
16.6876
17.3456
18.0394
18.896
19.4188
20.5207
321.666
910.33
966.05
11.611
11.9581
12.3268
12.7184
13.1347
13.578
14.0479
14.5439
15.0705
15.634
16.2414
16.8997
17.6035
18.4483
19.0686
20.1623
249.613
928.481
993.747
11.2143
11.5525
11.9127
12.2958
12.7038
13.1386
13.5992
14.0849
14.6009
15.1551
15.7521
16.4008
17.1137
17.9281
18.658
19.9048
215.778
915.608
991.808
10.7919
11.12
11.4704
11.844
12.2427
12.6686
13.1201
13.5963
14.1019
14.6455
15.2283
15.8636
16.5829
17.3535
18.2091
19.8835
164.808
763.372
854.071
10.3439
10.6602
10.9994
11.3627
11.7521
12.1699
12.6148
13.0832
13.5789
14.1169
14.6922
15.3212
16.0291
16.742
17.5299
16.365
35.6675
133.997
317.521
9.86957
10.1721
10.4983
10.85
11.2305
11.6431
12.0866
12.5514
13.0338
13.5797
14.1666
14.8045
15.485
16.0937
15.9028
-39.2672
-192.403
-589.409
-149.896
9.36843
9.65447
9.96481
10.3024
10.6732
11.083
11.5325
12.0052
12.5027
13.0255
13.6302
14.2734
14.9818
15.7189
14.2771
-16.2106
-151.118
-380.928
-25.4386
8.8396
9.10536
9.39558
9.71499
10.0725
10.4769
10.9317
11.4106
11.8801
12.3832
13.0076
13.7244
14.3078
13.2544
19.6823
33.2627
-41.1741
-84.873
-1.11349
8.28229
8.52211
8.78564
9.07962
9.4175
9.80886
10.2609
10.7404
11.1841
11.6095
12.3061
13.0954
12.8835
24.5725
35.8683
54.7434
14.4477
-15.4074
-13.1224
7.69664
7.90265
8.12919
8.38449
8.69089
9.05489
9.49655
9.99366
10.4747
10.6577
11.1017
10.3793
2.28929
13.957
24.4746
35.3301
14.4419
-16.2418
-20.4295
7.08509
7.24837
7.42316
7.61782
7.86303
8.15109
8.55658
9.15514
10.0767
9.97264
4.19642
-23.4882
-12.0869
-0.969193
-2.71968
-4.00457
-6.08338
-19.2609
-20.6997
6.45308
6.56631
6.67493
6.78492
6.9085
6.99187
7.24427
7.94862
9.02538
7.60397
-25.589
-30.9029
-14.5518
-8.1423
-10.7372
-13.7622
-15.5988
-19.7874
-19.008
5.80807
5.86704
5.90254
5.91869
5.87074
5.63506
5.4657
5.68709
4.79884
11.7613
-13.5259
-13.3518
-10.8397
-13.0529
-13.8839
-13.5656
-15.1713
-18.6547
-17.7178
5.15913
5.16198
5.12259
5.04712
4.85643
4.43991
3.66374
1.56691
-16.7451
-10.6176
-9.89602
-11.8881
-14.4931
-15.345
-15.0918
-14.3859
-15.2583
-17.4845
-16.8286
4.51781
4.46672
4.35527
4.1829
3.85834
3.3332
2.74179
2.46802
-6.78681
-11.7847
-12.8586
-13.5855
-14.7896
-15.8984
-16.3711
-16.4512
-17.1506
-16.8399
-16.1758
3.89565
3.79991
3.63565
3.38741
2.92575
2.06231
1.1244
-0.385898
-6.08929
-11.6522
-12.7055
-13.8241
-15.2791
-16.5394
-17.5085
-18.3513
-18.3053
-16.5715
-15.8079
3.29998
3.1731
2.98207
2.70028
2.23176
1.41574
0.395553
-3.03713
-10.7431
-13.0819
-12.8991
-13.8466
-15.3893
-16.7646
-18.0132
-18.9598
-18.0952
-16.6116
-15.6883
2.73394
2.58894
2.38737
2.10006
1.71259
1.12826
0.464588
0.407982
-14.6031
-13.1149
-12.7942
-13.417
-14.9161
-16.2353
-17.583
-17.6636
-16.5203
-16.5528
-15.5196
2.19793
2.04499
1.84111
1.5647
1.24009
0.7782
0.422946
-0.0494422
-0.60163
-11.0918
-12.2687
-12.2684
-13.7405
-14.7951
-15.9351
-15.3771
-14.3604
-15.5269
-14.7881
1.68904
1.53577
1.33543
1.07292
0.778546
0.390536
0.182742
-0.0796271
2.31765
-9.30048
-11.5517
-11.0245
-11.8003
-12.5597
-13.2203
-12.5539
-11.7228
-13.1073
-13.1813
1.20251
1.05548
0.866767
0.624709
0.339996
-0.099835
-0.514022
-0.831054
-1.31309
-6.3602
-8.79407
-9.25383
-9.34833
-9.82665
-10.0362
-9.44757
-8.89063
-10.1186
-10.6034
0.738922
0.603279
0.434334
0.226597
-0.0202968
-0.403293
-0.787405
-2.53546
-10.2513
-10.4455
-6.93527
-7.93608
-7.11605
-7.14124
-6.94998
-6.48243
-6.20906
-7.16291
-7.68652
0.301791
0.180277
0.0333771
-0.140272
-0.338474
-0.574579
-0.628582
-1.43319
2.1817
-9.86928
-9.69399
-7.01203
-5.15498
-4.72746
-4.2891
-3.9534
-3.88826
-4.58664
-4.94051
-0.125428
-0.231483
-0.356313
-0.500856
-0.66346
-0.839347
-0.920508
-1.25457
-0.377225
-1.22496
-7.10051
-3.1053
-3.79137
-2.53818
-2.15724
-1.92312
-1.91908
-2.39421
-2.6353
-0.582935
-0.672472
-0.773646
-0.886379
-1.01012
-1.14759
-1.30201
-1.6867
-1.9064
-3.42992
-5.15639
-4.84764
-3.04946
-0.389511
-0.514753
-0.523613
-0.68565
-0.774232
-0.627223
)
;

boundaryField
{
    leftWall
    {
        type            calculated;
        value           nonuniform List<scalar> 
50
(
1080.93
1020.98
959.881
897.798
834.903
771.422
707.6
643.626
543.375
408.497
278.969
162.208
73.7339
16.9418
11.1282
10.9823
10.8096
10.6159
10.4095
10.1909
9.96032
9.71833
9.46545
9.20229
8.92934
8.64699
8.35556
8.05537
7.74667
7.42974
7.10487
6.77235
6.43251
6.08571
5.73234
5.37282
5.00761
4.63719
4.26207
3.88272
3.49955
3.113
2.72367
2.33205
1.93798
1.54113
1.14383
0.750438
0.356348
-0.0561901
)
;
    }
    rightWall
    {
        type            calculated;
        value           nonuniform List<scalar> 
50
(
823.277
823.224
823.179
823.14
823.11
823.087
823.073
823.067
823.073
823.129
823.246
823.438
823.728
824.149
824.764
825.731
827.352
829.793
833.037
839.106
851.074
869.05
886.891
906.522
932.979
966.05
993.747
991.808
854.071
317.521
-149.896
-25.4386
-1.11349
-13.1224
-20.4295
-20.6997
-19.008
-17.7178
-16.8286
-16.1758
-15.8079
-15.6883
-15.5196
-14.7881
-13.1813
-10.6034
-7.68652
-4.94051
-2.6353
-0.627223
)
;
    }
    lowerWall
    {
        type            calculated;
        value           nonuniform List<scalar> 
62
(
1110.36
1114.08
1124.93
1130.17
1129.93
1124.83
1118.1
1112.36
1108.91
1108.41
1111.4
1118.55
1130.65
1148.85
1174.11
1207.38
1248.81
1296.39
1343.66
1377.78
1379.62
1371.02
1427.88
1401.52
1337.95
1287.96
1254.01
1224.69
1178.71
1113.09
1024.69
850.881
922.907
887.552
822.523
821.953
821.89
821.82
821.748
821.688
821.615
821.07
821.306
821.982
821.998
822.007
822.025
821.996
821.974
821.953
821.956
821.995
822.07
822.184
822.331
822.503
822.688
822.869
823.032
823.166
823.26
823.306
)
;
    }
    atmosphere
    {
        type            calculated;
        value           nonuniform List<scalar> 
46
(
-0.281027
-0.287827
-0.288493
-0.291499
-0.295257
-0.299972
-0.305732
-0.312644
-0.320814
-0.330323
-0.341254
-0.353749
-0.368028
-0.384336
-0.402874
-0.42383
-0.44749
-0.47426
-0.504569
-0.538776
-0.577262
-0.620513
-0.669062
-0.708906
-0.735851
-0.764102
-0.793785
-0.845919
-0.926805
-1.01489
-1.10877
-1.20585
-1.3021
-1.35538
-1.47479
-1.14481
0
0
0
0
0
0
0
0
0
0
)
;
    }
    defaultFaces
    {
        type            empty;
    }
}


// ************************************************************************* //
