/*--------------------------------*- C++ -*----------------------------------*\
  =========                 |
  \\      /  F ield         | OpenFOAM: The Open Source CFD Toolbox
   \\    /   O peration     | Website:  https://openfoam.org
    \\  /    A nd           | Version:  13
     \\/     M anipulation  |
\*---------------------------------------------------------------------------*/
FoamFile
{
    format      ascii;
    class       volScalarField;
    location    "0.35";
    object      p_rgh;
}
// * * * * * * * * * * * * * * * * * * * * * * * * * * * * * * * * * * * * * //

dimensions      [1 -1 -2 0 0 0 0];

internalField   nonuniform List<scalar> 
2268
(
1110.36
1114.08
1124.93
1130.17
1129.93
1124.83
1118.1
1112.36
1108.91
1108.41
1111.4
1118.55
1130.65
1148.85
1174.11
1207.38
1248.81
1296.39
1343.66
1377.78
1379.62
1371.02
1427.88
1109.27
1112.94
1123.6
1128.86
1128.57
1123.49
1116.85
1111.2
1107.81
1107.31
1110.26
1117.3
1129.21
1146.71
1170.79
1202.44
1242.31
1289.41
1338.73
1376.16
1382.01
1355.61
1426.12
1107.03
1110.7
1121.03
1126.26
1125.86
1120.83
1114.37
1108.9
1105.61
1105.11
1107.96
1114.81
1126.4
1143.57
1167.21
1197.95
1235.74
1279.19
1324.93
1363.68
1382.34
1373.45
1434.91
1103.8
1107.38
1117.32
1122.43
1121.87
1116.92
1110.71
1105.5
1102.35
1101.84
1104.53
1111.07
1122.25
1138.89
1161.8
1191.46
1227.7
1268.83
1311.67
1350.47
1379.57
1395.88
1459.35
1099.77
1103.07
1112.57
1117.47
1116.71
1111.85
1105.96
1101.05
1098.05
1097.49
1099.94
1106.09
1116.72
1132.67
1154.72
1183.29
1218.22
1258.07
1300.05
1340.14
1378.87
1414.98
1488.72
1095.14
1097.9
1106.91
1111.52
1110.52
1105.77
1100.21
1095.6
1092.72
1092.06
1094.18
1099.82
1109.77
1124.9
1145.96
1173.39
1207.14
1246.07
1288.15
1330.29
1375.2
1422.74
1501.44
1090.18
1092.08
1100.43
1104.6
1103.33
1098.73
1093.54
1089.23
1086.42
1085.56
1087.25
1092.24
1101.39
1115.54
1135.46
1161.65
1194.24
1232.39
1274.7
1318.79
1366.9
1418.75
1494.5
1085.07
1085.88
1093.1
1096.56
1095.01
1090.66
1085.91
1081.89
1079.09
1077.94
1079.07
1083.29
1091.47
1104.51
1123.26
1148
1179.34
1216.64
1258.93
1304.47
1353.82
1406.7
1464.79
821.982
821.998
822.007
822.025
821.996
821.974
821.953
821.956
821.995
822.07
822.184
822.331
822.503
822.688
822.869
823.032
823.166
823.26
823.306
821.978
821.995
822.003
822.028
821.994
821.971
821.947
821.949
821.987
822.063
822.178
822.326
822.501
822.687
822.87
823.036
823.171
823.266
823.312
821.967
821.986
821.991
822.031
821.989
821.965
821.937
821.936
821.973
822.05
822.165
822.316
822.495
822.686
822.874
823.043
823.181
823.278
823.326
821.954
821.979
821.97
822.037
821.982
821.957
821.921
821.915
821.952
822.03
822.146
822.301
822.486
822.685
822.879
823.055
823.197
823.298
823.346
821.986
822.014
821.938
822.047
821.972
821.945
821.899
821.886
821.924
822.002
822.119
822.28
822.474
822.682
822.887
823.07
823.219
823.324
823.375
822.363
822.336
821.893
822.054
821.964
821.932
821.87
821.847
821.888
821.967
822.085
822.252
822.457
822.679
822.896
823.09
823.247
823.357
823.411
821.983
822.317
821.728
822.077
821.965
821.916
821.834
821.797
821.845
821.924
822.04
822.216
822.437
822.676
822.908
823.114
823.281
823.398
823.455
821.784
822.274
821.513
822.034
821.989
821.894
821.784
821.728
821.793
821.872
821.986
822.172
822.412
822.672
822.923
823.144
823.322
823.447
823.508
1076.84
1075.86
1080.35
1082.64
1080.76
1076.76
1072.58
1068.88
1065.91
1064.11
1064.15
1066.89
1073.24
1084.13
1100.67
1123.33
1153.06
1189.16
1231.17
1278.03
1326.67
1373.67
1386.21
1067.16
1061.91
1061.34
1062.35
1060.1
1056
1051.82
1047.78
1043.94
1040.73
1038.89
1039.27
1042.73
1049.55
1058.96
1071.8
1100.17
1133.64
1174.2
1220.96
1269.3
1317.92
1364.02
1062.83
1051.97
1042.74
1039.69
1035.87
1030.8
1025.78
1020.53
1014.9
1009.34
1004.69
1002.05
1003.28
1010.9
1025.23
1044.96
1055.4
1080.16
1117.76
1163.63
1211.67
1259.95
1311.97
1071.25
1037.82
937.551
926.589
919.593
899.63
873.806
845.118
811.139
771.154
727.398
684.224
645.438
615.254
605.643
624.253
670.753
758.634
882.695
1039.72
1124.26
1177.57
1231.51
958.232
507.905
225.495
226.094
217.6
186.192
154.053
126.027
98.5909
71.4754
46.9557
27.0575
13.6062
13.4004
13.6552
13.9164
18.5361
41.1337
92.4897
189.71
370.98
641.353
921.742
124.351
12.8057
12.4536
12.6549
12.7071
12.7605
12.8394
12.9394
13.0601
13.2022
13.3587
13.4963
13.5146
13.5485
13.7331
13.987
14.258
14.5114
14.8108
15.4788
15.5262
30.3628
110.001
12.4128
12.4221
12.4723
12.5762
12.6461
12.709
12.7882
12.8824
12.9913
13.1137
13.2423
13.3609
13.4411
13.5275
13.6767
13.8966
14.3958
14.9748
15.276
15.2788
14.9612
14.83
15.0746
12.3921
12.4511
12.4736
12.5205
12.58
12.6414
12.7177
12.8051
12.9034
13.0107
13.1222
13.2294
13.3236
13.4239
13.5494
14.1744
15.3601
15.4572
15.4611
15.4958
14.6721
14.6018
14.9485
12.3446
12.368
12.4021
12.4482
12.5029
12.5641
12.636
12.7176
12.8079
12.9055
13.0084
13.1106
13.2086
13.3098
13.4153
14.2562
15.1403
15.3176
15.3716
14.4049
14.1077
14.446
14.8569
12.2762
12.2959
12.3282
12.368
12.4182
12.4768
12.5448
12.6217
12.7064
12.7977
12.8943
12.9942
13.0937
13.1968
13.3184
13.3762
13.5589
14.5076
15.391
15.0054
14.3362
14.5459
14.921
12.1949
12.2122
12.2407
12.2771
12.3238
12.3797
12.4445
12.5177
12.5984
12.6857
12.7787
12.8767
12.9786
13.0853
13.1893
13.2899
13.3941
13.4972
13.8228
15.0078
14.8791
14.9237
16.5159
12.1015
12.1159
12.1414
12.1757
12.2197
12.273
12.3352
12.4056
12.4837
12.5686
12.6599
12.7573
12.8604
12.9694
13.0811
13.1957
13.3185
13.453
13.59
14.132
14.393
14.4363
14.6541
11.9961
12.0085
12.0317
12.0641
12.106
12.1571
12.217
12.2853
12.3614
12.4448
12.5353
12.6327
12.7371
12.8485
12.9668
13.093
13.2304
13.3829
13.5545
13.7598
14.0182
14.2779
14.5488
11.8793
11.8903
11.9118
11.9425
11.9826
12.0319
12.0899
12.1564
12.2309
12.3133
12.4033
12.501
12.6067
12.7209
12.8444
12.9785
13.1258
13.29
13.4748
13.6865
13.9282
14.1825
14.4489
11.7516
11.7618
11.7819
11.8113
11.8498
11.8974
11.9538
12.0187
12.0919
12.1733
12.2628
12.3607
12.4675
12.5839
12.7109
12.8501
13.0035
13.1739
13.3639
13.5762
13.8108
14.0626
14.3305
11.6137
11.6233
11.6423
11.6705
11.7077
11.7538
11.8087
11.8722
11.9441
12.0244
12.1133
12.211
12.3183
12.4359
12.565
12.7069
12.8633
13.0361
13.2272
13.4378
13.6678
13.9155
14.18
11.4659
11.4751
11.4933
11.5204
11.5564
11.6011
11.6545
11.7166
11.7871
11.8662
11.9541
12.0513
12.1583
12.2762
12.4059
12.5485
12.7054
12.8781
13.0677
13.2752
13.5006
13.7434
14.0029
11.3088
11.3176
11.3351
11.3612
11.396
11.4393
11.4913
11.5518
11.6208
11.6984
11.785
11.881
11.9872
12.1043
12.2332
12.3749
12.5305
12.7011
12.8877
13.0909
13.3111
13.5481
13.8015
11.1425
11.1511
11.1679
11.193
11.2266
11.2686
11.319
11.3778
11.445
11.5209
11.6057
11.7001
11.8046
11.9199
12.0469
12.1864
12.3392
12.5062
12.6884
12.8864
13.1004
13.3306
13.5769
10.9675
10.9757
10.9919
11.0161
11.0485
11.089
11.1377
11.1946
11.2599
11.3336
11.4163
11.5084
11.6105
11.7233
11.8473
11.9833
12.132
12.2943
12.471
12.6626
12.8694
13.0918
13.3298
10.784
10.7919
10.8074
10.8306
10.8617
10.9007
10.9476
11.0024
11.0654
11.1367
11.2168
11.3061
11.4052
11.5145
11.6346
11.7661
11.9097
12.0662
12.2362
12.4203
12.6189
12.8323
13.0609
10.5923
10.5998
10.6146
10.6368
10.6666
10.7039
10.7489
10.8015
10.8619
10.9305
11.0075
11.0935
11.1888
11.2939
11.4093
11.5354
11.673
11.8226
11.9849
12.1603
12.3494
12.5526
12.7705
10.3926
10.3997
10.4138
10.435
10.4634
10.499
10.5418
10.5919
10.6496
10.7151
10.7887
10.8708
10.9618
11.0621
11.1719
11.2919
11.4225
11.5643
11.7177
11.8834
12.0618
12.2535
12.4592
10.1853
10.192
10.2054
10.2254
10.2524
10.2861
10.3267
10.3742
10.4289
10.4909
10.5607
10.6385
10.7247
10.8195
10.9232
11.0362
11.159
11.292
11.4357
11.5904
11.7568
11.9356
12.1275
9.97065
9.97688
9.98952
10.0085
10.0338
10.0656
10.1039
10.1486
10.2001
10.2584
10.3241
10.3972
10.478
10.5668
10.6637
10.7691
10.8834
11.0067
11.1396
11.2823
11.4355
11.5997
11.776
9.74904
9.75482
9.76668
9.78445
9.80823
9.83798
9.87374
9.91557
9.96362
10.0181
10.0793
10.1473
10.2225
10.3047
10.3944
10.4916
10.5966
10.7096
10.8308
10.9604
11.099
11.2472
11.4057
9.52086
9.52618
9.53724
9.55377
9.57589
9.60354
9.63673
9.67552
9.72002
9.77044
9.82694
9.88967
9.95873
10.0342
10.1162
10.2048
10.3
10.4019
10.5106
10.6262
10.7491
10.8797
11.0184
9.28654
9.29139
9.30161
9.31687
9.33728
9.36275
9.39329
9.42893
9.46978
9.51598
9.56764
9.62485
9.68764
9.75604
9.83003
9.9096
9.99465
10.085
10.1807
10.2816
10.3878
10.4994
10.6166
9.04652
9.0509
9.06026
9.07419
9.09283
9.11606
9.14389
9.17633
9.21344
9.25533
9.30204
9.35361
9.41
9.47117
9.53702
9.60738
9.68201
9.76061
9.84288
9.92856
10.0174
10.1091
10.2034
8.8013
8.80519
8.81366
8.82623
8.84306
8.864
8.88907
8.91826
8.9516
8.98912
9.03085
9.07672
9.12667
9.18057
9.23823
9.29935
9.36351
9.43025
9.49905
9.56938
9.64066
9.71207
9.78276
8.55138
8.55474
8.56232
8.57349
8.58848
8.60711
8.62939
8.65531
8.68487
8.71804
8.75478
8.795
8.83855
8.88526
8.93481
8.98678
9.04062
9.09568
9.15124
9.20648
9.26043
9.31178
9.35903
8.29722
8.30004
8.30673
8.31646
8.32959
8.34589
8.36539
8.38806
8.41385
8.44271
8.47454
8.50919
8.54649
8.58616
8.62781
8.6709
8.71475
8.75855
8.80139
8.8422
8.87963
8.91194
8.93698
8.03924
8.04147
8.0473
8.05557
8.06684
8.08081
8.09755
8.11701
8.13909
8.16372
8.19075
8.22
8.25122
8.2841
8.31817
8.35277
8.38711
8.42028
8.45121
8.47861
8.50086
8.51582
8.52087
7.77789
7.77949
7.78448
7.79128
7.80071
7.81238
7.82641
7.84271
7.86119
7.8817
7.90408
7.92811
7.95351
7.97991
8.00677
8.03337
8.05884
8.08218
8.10224
8.11756
8.12632
8.12616
8.11415
7.51375
7.51468
7.51889
7.52421
7.53184
7.54127
7.55266
7.56591
7.58089
7.59744
7.61536
7.6344
7.65427
7.67455
7.69465
7.71382
7.73115
7.74562
7.75602
7.76082
7.75807
7.74533
7.7196
7.24732
7.2475
7.251
7.25488
7.26078
7.26808
7.27695
7.28726
7.29887
7.31162
7.32529
7.3396
7.35425
7.36878
7.38261
7.39497
7.40496
7.41158
7.41363
7.40955
7.3974
7.37475
7.33871
6.97845
6.97778
6.98065
6.98315
6.98744
6.99272
6.99916
7.00665
7.01503
7.02413
7.03372
7.04353
7.05323
7.06238
7.07038
7.0765
7.07991
7.07964
7.07454
7.0631
7.04348
7.01343
6.97025
6.70679
6.70517
6.70749
6.70875
6.7115
6.71487
6.71898
6.72372
6.72897
6.73454
6.74021
6.74569
6.75066
6.75472
6.7573
6.75772
6.75521
6.74888
6.73766
6.72018
6.69475
6.6594
6.61173
6.43469
6.43215
6.43396
6.43416
6.43546
6.43704
6.43894
6.44108
6.44336
6.44559
6.44754
6.44896
6.44953
6.4489
6.44657
6.44193
6.43427
6.4228
6.40658
6.38441
6.35483
6.31613
6.26628
6.16649
6.16343
6.16462
6.16397
6.16395
6.16388
6.16377
6.16356
6.16313
6.16232
6.16091
6.15865
6.1553
6.15056
6.14399
6.13504
6.12312
6.10755
6.08756
6.06212
6.02999
5.98979
5.93985
5.8976
5.89434
5.89464
5.89323
5.89192
5.89027
5.88823
5.88574
5.88268
5.8789
5.87423
5.86847
5.8614
5.85275
5.84217
5.82922
5.81342
5.79423
5.771
5.74291
5.70902
5.66828
5.61948
5.61025
5.6059
5.60519
5.60285
5.60004
5.59653
5.59224
5.58707
5.58091
5.57366
5.56519
5.55536
5.54394
5.53068
5.51534
5.49763
5.47719
5.45357
5.42627
5.39475
5.35844
5.31662
5.26855
1319.65
1391.7
1260.15
855.945
1387.82
1392.8
1364.89
1254.05
1336.62
1339.05
1335.92
1338.97
1264.22
1279.52
1295.08
1311.61
1095.4
1183.19
1216.08
1236.81
210.605
292.464
408.411
537.934
15.6059
16.0564
17.1278
17.3315
15.2615
15.4687
15.6737
15.8445
15.1789
15.3919
15.5937
15.7854
15.2384
15.4407
15.6328
15.8159
16.9033
17.1055
17.2982
17.494
15.0024
15.2662
15.4931
15.6816
14.7668
14.9094
15.0587
15.2132
14.6624
14.808
14.9567
15.1085
14.5423
14.6829
14.8274
14.9754
14.3876
14.5249
14.666
14.8109
14.2063
14.3408
14.479
14.6209
14.0002
14.1315
14.2666
14.4054
13.7701
13.8979
14.0295
14.1649
13.5168
13.6406
13.7683
13.8998
13.2407
13.3599
13.4831
13.6102
12.9422
13.0562
13.1742
13.296
12.6216
12.7296
12.8414
12.9571
12.2791
12.38
12.4846
12.5931
11.9151
12.0077
12.1039
12.2038
11.5305
11.6135
11.6997
11.7893
11.1269
11.1987
11.2732
11.3506
10.7069
10.7662
10.8273
10.8902
10.2741
10.3197
10.3661
10.413
9.83296
9.86434
9.89503
9.92484
9.38884
9.4059
9.42084
9.43328
8.94752
8.95109
8.9512
8.94728
8.51434
8.50609
8.49337
8.47548
8.09346
8.07557
8.05264
8.02395
7.68791
7.66275
7.63233
7.596
7.29925
7.26914
7.23384
7.19276
6.92604
6.8931
6.85525
6.81198
6.56526
6.53129
6.49284
6.44954
6.21946
6.18585
6.14839
6.1068
5.89444
5.86234
5.82711
5.78852
5.57669
5.54682
5.51442
5.47937
5.22805
5.20031
5.17079
5.1394
819.873
829.867
820.96
821.511
822.13
821.842
821.705
821.608
821.717
821.797
821.885
822.087
822.365
822.666
822.952
823.2
823.398
823.537
823.606
1211.29
1067.95
817.707
838.022
822.178
821.567
821.373
821.268
821.624
821.627
821.635
821.906
822.277
822.661
823.009
823.304
823.539
823.705
823.788
1360.88
1414.18
1173.06
1273.91
1206.95
844.294
831.624
820.5
821.132
821.114
821.164
821.578
822.116
822.653
823.097
823.446
823.725
823.926
824.03
1336.37
1368.31
1433.95
1393.92
1500.49
1498.2
1491
1462.95
1067.57
833.111
820.265
821.045
821.876
822.607
823.233
823.639
823.966
824.214
824.347
1270.88
1311.43
1349.64
1373.74
1425.29
1502.3
1511.51
1558.95
1626.41
1659.96
1498.07
949.544
825.179
822.794
823.437
823.891
824.26
824.583
824.762
745.525
961.635
1091.01
1200.55
1333.36
1371.69
1400.74
1438.05
1518.24
1608.02
1695.47
1783.28
1392.61
856.024
823.907
824.193
824.57
825.042
825.308
36.714
94.4036
167.077
252.449
371.257
518.239
629.102
749.734
1057.47
1457.08
1555.8
1703.46
1877.6
1586.73
893.376
824.505
824.861
825.59
826.049
16.1103
16.6368
17.2838
18.132
18.5657
20.7188
23.6945
32.639
94.0011
245.59
573.015
1353.65
1732.94
1955.33
1590.47
884.042
825.237
826.377
827.141
16.0961
16.5741
17.1388
17.7406
18.2054
20.0598
22.1624
21.1304
19.5322
20.5165
22.2902
192.671
1071.58
1796.44
2022.64
1489.46
847.548
827.856
828.888
16.0987
16.9415
18.9092
19.3767
19.7787
19.5593
18.7172
18.8017
19.1617
19.6079
20.1934
21.3321
99.8977
1113.59
1878.01
2026.1
1177.01
829.99
831.489
17.7903
18.1708
17.6007
17.2472
17.5226
17.75
18.1266
18.5924
19.11
19.6473
20.2413
20.9701
21.8695
214.853
1467.9
1938.54
1715.99
877.42
835.136
15.9631
16.2442
16.4224
16.8161
17.2341
17.6612
18.1127
18.6043
19.1354
19.713
20.344
21.0257
21.7463
21.7099
815.508
1853.89
2036.96
1038.5
843.239
15.4782
15.8721
16.2833
16.6986
17.1236
17.5674
18.0399
18.5508
19.1016
19.6876
20.2947
20.9317
21.692
22.2318
223.308
1682.59
2145.44
1188.98
863.532
15.3688
15.7515
16.1507
16.5626
16.9912
17.4443
17.9285
18.4484
19.0069
19.5961
20.1994
20.8154
21.5378
22.0717
21.939
1305.78
2143.24
1336.57
893.12
15.2283
15.602
15.994
16.4044
16.8358
17.2938
17.7827
18.304
18.863
19.4649
20.0771
20.6895
21.37
22.0118
22.2083
980.677
2150.91
1413.05
924.136
15.0593
15.4265
15.8137
16.2216
16.6527
17.1111
17.5998
18.1187
18.6688
19.2713
19.8841
20.5181
21.1782
21.9298
22.2707
714.92
2127.67
1502.88
956.974
14.8646
15.2259
15.6078
16.0117
16.4399
16.8957
17.3805
17.8942
18.4368
19.0209
19.6508
20.2984
20.9801
21.7914
22.2374
446.245
2035.92
1605.72
996.451
14.6441
14.9988
15.3747
15.7732
16.1964
16.6469
17.1252
17.631
18.1669
18.7379
19.3765
20.0352
20.729
21.5634
22.0823
257.541
1928.84
1725.01
1044.5
14.398
14.7451
15.1138
15.5053
15.9217
16.365
16.8349
17.3309
17.8575
18.421
19.0484
19.7158
20.4132
21.2379
21.8573
166.328
1846.12
1836.26
1091.02
14.1264
14.4647
14.8249
15.208
15.616
16.0508
16.5121
16.9974
17.5131
18.0673
18.6745
19.3316
20.0321
20.8419
21.5719
142.429
1805.7
1931.07
1115.93
13.8293
14.1574
14.5078
14.8814
15.2801
15.7076
16.1634
16.6382
17.1396
17.6844
18.2777
18.9082
19.622
20.3925
21.2481
119.062
1702.46
1921.74
1010.51
13.5064
13.8228
14.162
14.5252
14.9146
15.3358
15.7836
16.2519
16.7458
17.2857
17.862
18.4867
19.1933
19.9061
20.6941
315.092
1170.21
1228.57
519.529
13.1573
13.4599
13.786
14.1377
14.5182
14.9308
15.3787
15.8456
16.328
16.8725
17.4561
18.0939
18.7744
19.3831
102.344
589.664
364.898
55.7711
388.147
12.7814
13.0674
13.3778
13.7154
14.0861
14.4965
14.9466
15.4218
15.9184
16.4407
17.0449
17.6881
18.3964
19.1335
441.896
658.159
118.654
-161.943
220.432
12.3777
12.6435
12.9337
13.2531
13.6115
14.0219
14.4763
14.9506
15.42
15.9232
16.5475
17.2644
17.8477
276.573
756.153
502.965
27.9531
-13.0937
24.2701
11.9456
12.1854
12.449
12.7429
13.0844
13.4793
13.9314
14.4075
14.8492
15.2747
15.9714
16.7605
113.844
772.808
803.152
409.017
57.1154
17.2749
-4.11129
11.4852
11.6912
11.9177
12.173
12.4794
12.8485
13.2882
13.7838
14.265
14.4481
14.8923
200.167
770.734
809.906
816.747
316.811
47.4621
-3.07482
-15.2491
10.9988
11.1621
11.3369
11.5315
11.7767
12.0648
12.4703
13.0689
13.9915
13.9026
403.984
797.747
811.752
820.792
747.817
119.819
18.4468
-13.8571
-16.451
10.492
10.6052
10.7139
10.8238
10.9474
11.0311
11.2832
11.9878
13.0801
358.32
821.916
819.289
834.06
807.939
210.832
25.9876
7.63035
-15.2385
-14.905
9.97218
10.0312
10.0667
10.0828
10.0349
9.81408
9.63
9.85228
43.4022
810.483
842.423
805.377
543.097
138.661
-5.7447
-5.21034
13.828
-14.0139
-13.5428
9.44843
9.45128
9.41191
9.33643
9.14585
8.74593
7.95377
37.4375
293.414
386.03
249.767
83.5653
7.01523
-6.95083
-10.2217
-8.29906
14.0564
-12.1381
-12.5345
8.93231
8.88122
8.76977
8.59741
8.27288
7.75751
7.1569
145.561
256.571
55.4199
-6.13001
-8.88724
-10.0232
-11.264
-11.8556
-10.5371
10.4599
-11.3225
-11.7573
8.43534
8.33961
8.17534
7.92713
7.46692
6.60247
5.66457
4.83008
0.538927
-3.66164
-6.51087
-9.19743
-10.7259
-11.9898
-12.9284
-11.8772
7.65102
-11.3681
-11.2642
7.96487
7.83799
7.64696
7.36527
6.89817
6.08107
5.06093
9.50426
198.659
56.5438
-8.14879
-9.16955
-10.7222
-12.0971
-13.3317
-10.9573
6.66255
-11.8439
-11.0193
7.52402
7.37903
7.17745
6.89019
6.50294
5.91871
5.25521
106.488
230.992
99.4775
-7.9526
-8.62597
-10.125
-11.4434
-12.692
-8.2002
-3.41534
-11.7536
-10.7253
7.11321
6.96027
6.75638
6.47998
6.15536
5.69609
5.68873
4.88657
251.36
59.0593
-7.35248
-7.35221
-8.82425
-9.87869
-10.8364
-7.51864
-9.05886
-10.5087
-9.868
6.72951
6.57624
6.3759
6.11339
5.81902
5.43785
5.23765
4.97414
156.901
303.537
37.1837
-5.98306
-6.75888
-7.51792
-8.05931
-7.05086
-6.25853
-7.6818
-8.13285
6.36818
6.22115
6.03243
5.79037
5.50566
5.06837
4.66741
4.34969
36.1165
419.985
61.6293
-3.97246
-4.18161
-4.65977
-4.82421
-4.18634
-3.48439
-4.64872
-5.43019
6.02978
5.89414
5.72519
5.51746
5.27057
4.88757
4.57904
2.80541
124.237
431.293
147.237
-2.29951
-1.82412
-1.8493
-1.65262
-1.16365
-0.823905
-1.79002
-2.39269
5.71785
5.59633
5.44943
5.27578
5.07758
4.84147
4.78748
5.76799
254.894
445.539
449.142
33.5464
0.262151
0.689669
1.12846
1.46976
1.55712
0.839652
0.476597
5.41582
5.30976
5.18494
5.04039
4.87779
4.7019
4.62075
4.28668
5.16402
462.141
462.556
27.956
1.75097
3.00465
3.38567
3.62155
3.63298
3.14913
2.90677
5.08351
4.99397
4.8928
4.78006
4.65632
4.51886
4.36443
3.97975
3.76004
316.671
475.111
360.602
54.434
5.28063
5.15457
5.14589
4.98385
4.89305
5.04006
)
;

boundaryField
{
    leftWall
    {
        type            fixedFluxPressure;
        gradient        uniform 0;
        value           nonuniform List<scalar> 
50
(
1110.36
1109.27
1107.03
1103.8
1099.77
1095.14
1090.18
1085.07
1076.84
1067.16
1062.83
1071.25
958.232
124.351
12.4128
12.3921
12.3446
12.2762
12.1949
12.1015
11.9961
11.8793
11.7516
11.6137
11.4659
11.3088
11.1425
10.9675
10.784
10.5923
10.3926
10.1853
9.97065
9.74904
9.52086
9.28654
9.04652
8.8013
8.55138
8.29722
8.03924
7.77789
7.51375
7.24732
6.97845
6.70679
6.43469
6.16649
5.8976
5.61025
)
;
    }
    rightWall
    {
        type            fixedFluxPressure;
        gradient        uniform 0;
        value           nonuniform List<scalar> 
50
(
823.306
823.312
823.326
823.346
823.375
823.411
823.455
823.508
823.606
823.788
824.03
824.347
824.762
825.308
826.049
827.141
828.888
831.489
835.136
843.239
863.532
893.12
924.136
956.974
996.451
1044.5
1091.02
1115.93
1010.51
519.529
388.147
220.432
24.2701
-4.11129
-15.2491
-16.451
-14.905
-13.5428
-12.5345
-11.7573
-11.2642
-11.0193
-10.7253
-9.868
-8.13285
-5.43019
-2.39269
0.476597
2.90677
5.04006
)
;
    }
    lowerWall
    {
        type            fixedFluxPressure;
        gradient        uniform 0;
        value           nonuniform List<scalar> 
62
(
1110.36
1114.08
1124.93
1130.17
1129.93
1124.83
1118.1
1112.36
1108.91
1108.41
1111.4
1118.55
1130.65
1148.85
1174.11
1207.38
1248.81
1296.39
1343.66
1377.78
1379.62
1371.02
1427.88
1427.88
1426.12
1434.91
1459.35
1488.72
1501.44
1494.5
1464.79
1319.65
1391.7
1260.15
855.945
821.982
821.978
821.967
821.954
821.986
822.363
821.983
821.784
821.982
821.998
822.007
822.025
821.996
821.974
821.953
821.956
821.995
822.07
822.184
822.331
822.503
822.688
822.869
823.032
823.166
823.26
823.306
)
;
    }
    atmosphere
    {
        type            prghTotalPressure;
        rho             rho;
        psi             none;
        gamma           1;
        p0              uniform 0;
        value           nonuniform List<scalar> 
46
(
5.44801
5.44121
5.44055
5.43754
5.43378
5.42907
5.42331
5.4164
5.40823
5.39872
5.38779
5.37529
5.36101
5.3447
5.32617
5.30521
5.28155
5.25478
5.22447
5.19026
5.15178
5.10853
5.05998
5.02013
4.99319
4.96494
4.93525
4.88312
4.80224
4.71415
4.62027
4.52319
4.42694
4.37366
4.25425
4.58423
323.637
485.573
369.487
58.1185
5.73278
5.73195
5.73214
5.73213
5.72989
5.72989
)
;
        rho             rho;
    }
    defaultFaces
    {
        type            empty;
    }
}


// ************************************************************************* //
