/*--------------------------------*- C++ -*----------------------------------*\
  =========                 |
  \\      /  F ield         | OpenFOAM: The Open Source CFD Toolbox
   \\    /   O peration     | Website:  https://openfoam.org
    \\  /    A nd           | Version:  13
     \\/     M anipulation  |
\*---------------------------------------------------------------------------*/
FoamFile
{
    format      ascii;
    class       surfaceScalarField;
    location    "0.35";
    object      phi;
}
// * * * * * * * * * * * * * * * * * * * * * * * * * * * * * * * * * * * * * //

dimensions      [0 3 -1 0 0 0 0];

internalField   nonuniform List<scalar> 
4432
(
-2.23926e-06
2.23926e-06
1.28241e-07
-2.36751e-06
5.6101e-06
-5.48186e-06
1.22601e-05
-6.64997e-06
1.85827e-05
-6.3226e-06
2.39247e-05
-5.34199e-06
2.82029e-05
-4.2782e-06
3.15925e-05
-3.38962e-06
3.43218e-05
-2.72931e-06
3.65702e-05
-2.24846e-06
3.84286e-05
-1.85838e-06
3.9897e-05
-1.46835e-06
4.08742e-05
-9.77226e-07
4.11415e-05
-2.67277e-07
4.02141e-05
9.27373e-07
3.72318e-05
2.98235e-06
3.12011e-05
6.03072e-06
2.1152e-05
1.0049e-05
7.58509e-06
1.35669e-05
-6.69783e-06
1.42829e-05
-1.62678e-05
9.56993e-06
-1.71049e-05
8.37165e-07
-1.71049e-05
-2.21374e-06
4.453e-06
3.00437e-07
-4.88168e-06
5.85438e-06
-1.10358e-05
1.24894e-05
-1.3285e-05
1.87652e-05
-1.25984e-05
2.40593e-05
-1.06361e-05
2.83101e-05
-8.529e-06
3.17037e-05
-6.78319e-06
3.44687e-05
-5.49432e-06
3.67769e-05
-4.55664e-06
3.87104e-05
-3.79186e-06
4.02598e-05
-3.01782e-06
4.13607e-05
-2.07803e-06
4.19472e-05
-8.53853e-07
4.2037e-05
8.3764e-07
4.17625e-05
3.25681e-06
4.07103e-05
7.0829e-06
3.73467e-05
1.34127e-05
2.88723e-05
2.20413e-05
1.39736e-05
2.91816e-05
-3.83824e-06
2.73818e-05
-8.76883e-06
5.76777e-06
-2.58738e-05
-1.99304e-06
6.44604e-06
6.12814e-07
-7.48753e-06
6.22716e-06
-1.66501e-05
1.27868e-05
-1.98446e-05
1.89144e-05
-1.8726e-05
2.40558e-05
-1.57776e-05
2.81971e-05
-1.26703e-05
3.15457e-05
-1.01318e-05
3.43284e-05
-8.27695e-06
3.67011e-05
-6.92935e-06
3.87274e-05
-5.81817e-06
4.03885e-05
-4.67894e-06
4.16047e-05
-3.29416e-06
4.22383e-05
-1.4875e-06
4.21752e-05
9.0077e-07
4.13485e-05
4.08347e-06
4.0037e-05
8.39443e-06
3.88391e-05
1.46106e-05
3.68701e-05
2.40103e-05
3.08265e-05
3.52252e-05
1.89044e-05
3.93039e-05
6.76174e-06
1.79104e-05
-1.9112e-05
-1.69895e-06
8.14499e-06
1.08067e-06
-1.02672e-05
6.73898e-06
-2.23085e-05
1.31749e-05
-2.62805e-05
1.90878e-05
-2.46389e-05
2.40204e-05
-2.07102e-05
2.80251e-05
-1.6675e-05
3.13328e-05
-1.34395e-05
3.41608e-05
-1.1105e-05
3.66398e-05
-9.40828e-06
3.88065e-05
-7.9849e-06
4.06232e-05
-6.49563e-06
4.20006e-05
-4.67156e-06
4.28209e-05
-2.30779e-06
4.29467e-05
7.7491e-07
4.22693e-05
4.76094e-06
4.07814e-05
9.88229e-06
3.90154e-05
1.63766e-05
3.81718e-05
2.4854e-05
3.74089e-05
3.59881e-05
3.19055e-05
4.48073e-05
1.8114e-05
3.17019e-05
-9.97987e-07
-1.3086e-06
9.45359e-06
1.68231e-06
-1.32581e-05
7.35442e-06
-2.79806e-05
1.36107e-05
-3.25367e-05
1.92482e-05
-3.02764e-05
2.39304e-05
-2.53925e-05
2.77873e-05
-2.05318e-05
3.10696e-05
-1.67219e-05
3.39748e-05
-1.40101e-05
3.65977e-05
-1.20312e-05
3.89421e-05
-1.03294e-05
4.09485e-05
-8.50199e-06
4.25196e-05
-6.2427e-06
4.35412e-05
-3.32933e-06
4.39023e-05
4.13791e-07
4.35182e-05
5.145e-06
4.23549e-05
1.10456e-05
4.0494e-05
1.82375e-05
3.87787e-05
2.65693e-05
3.83771e-05
3.63896e-05
3.59694e-05
4.72149e-05
2.33605e-05
4.43108e-05
2.23625e-05
-8.21382e-07
1.0275e-05
2.40112e-06
-1.64806e-05
8.05748e-06
-3.36369e-05
1.40829e-05
-3.85621e-05
1.93977e-05
-3.55913e-05
2.38072e-05
-2.9802e-05
2.75233e-05
-2.42479e-05
3.08076e-05
-2.00062e-05
3.38248e-05
-1.70273e-05
3.66254e-05
-1.48318e-05
3.91759e-05
-1.28798e-05
4.13941e-05
-1.07202e-05
4.31757e-05
-8.0243e-06
4.4412e-05
-4.56558e-06
4.5005e-05
-1.79291e-07
4.48915e-05
5.25854e-06
4.4051e-05
1.18861e-05
4.2497e-05
1.97916e-05
4.03006e-05
2.87657e-05
3.8485e-05
3.82053e-05
3.61087e-05
4.95911e-05
2.52005e-05
5.52191e-05
4.7563e-05
-2.74705e-07
1.05497e-05
3.20904e-06
-1.99643e-05
8.8227e-06
-3.92506e-05
1.45784e-05
-4.43178e-05
1.95489e-05
-4.05618e-05
2.3692e-05
-3.39451e-05
2.72979e-05
-2.78537e-05
3.06258e-05
-2.33341e-05
3.37954e-05
-2.01969e-05
3.68064e-05
-1.78428e-05
3.95875e-05
-1.5661e-05
4.20364e-05
-1.31691e-05
4.40427e-05
-1.00306e-05
4.55005e-05
-6.02331e-06
4.63189e-05
-9.97752e-07
4.64484e-05
5.12905e-06
4.58572e-05
1.24774e-05
4.45792e-05
2.10695e-05
4.24616e-05
3.08833e-05
3.96279e-05
4.1039e-05
3.6065e-05
5.31541e-05
2.6808e-05
6.44761e-05
7.4371e-05
3.45279e-07
1.02044e-05
4.06204e-06
-2.36811e-05
9.58647e-06
-4.4775e-05
1.50402e-05
-4.97715e-05
1.96782e-05
-4.51997e-05
2.3598e-05
-3.78649e-05
2.71485e-05
-3.14042e-05
3.05693e-05
-2.6755e-05
3.39258e-05
-2.35534e-05
3.71665e-05
-2.10834e-05
4.01886e-05
-1.86831e-05
4.28789e-05
-1.58595e-05
4.51281e-05
-1.22798e-05
4.68288e-05
-7.72396e-06
4.78984e-05
-2.06735e-06
4.82848e-05
4.74264e-06
4.79219e-05
1.28403e-05
4.68313e-05
2.21601e-05
4.49377e-05
3.27769e-05
4.18811e-05
4.40956e-05
3.71407e-05
5.78945e-05
2.76331e-05
7.39836e-05
0.000102004
5.22292e-06
-5.22292e-06
-5.21944e-07
5.74498e-06
-1.38858e-05
1.33639e-05
-1.98332e-05
5.94734e-06
-2.84443e-05
8.61113e-06
-3.47285e-05
6.28423e-06
-3.93303e-05
4.60173e-06
-4.25094e-05
3.17921e-06
-4.40494e-05
1.54013e-06
-4.41334e-05
8.40377e-08
-4.28076e-05
-1.32589e-06
-4.03676e-05
-2.43999e-06
-3.69364e-05
-3.4313e-06
-3.2588e-05
-4.34837e-06
-2.73508e-05
-5.23721e-06
-2.13449e-05
-6.00585e-06
-1.46658e-05
-6.67916e-06
-7.40946e-06
-7.25625e-06
-7.40939e-06
8.25308e-06
-1.3476e-05
3.44494e-06
1.05532e-05
-1.15434e-05
2.83523e-05
-1.88501e-05
1.3254e-05
-2.85105e-05
1.82715e-05
-3.50064e-05
1.27803e-05
-3.91532e-05
8.74858e-06
-4.18021e-05
5.82816e-06
-4.30109e-05
2.749e-06
-4.27038e-05
-2.2306e-07
-4.0966e-05
-3.06393e-06
-3.79013e-05
-5.50462e-06
-3.37134e-05
-7.61927e-06
-2.87277e-05
-9.33398e-06
-2.32661e-05
-1.06988e-05
-1.75596e-05
-1.17123e-05
-1.17416e-05
-1.2497e-05
-5.82984e-06
-1.3168e-05
-1.32392e-05
7.14599e-06
-2.0622e-05
4.32414e-06
1.3375e-05
-1.2415e-05
4.50915e-05
-1.90312e-05
1.98702e-05
-2.8533e-05
2.77732e-05
-3.49827e-05
1.92301e-05
-3.93334e-05
1.30993e-05
-4.22193e-05
8.71398e-06
-4.35591e-05
4.08874e-06
-4.32797e-05
-5.02382e-07
-4.15542e-05
-4.78957e-06
-3.85554e-05
-8.50337e-06
-3.4444e-05
-1.17307e-05
-2.94489e-05
-1.43291e-05
-2.38862e-05
-1.62616e-05
-1.79894e-05
-1.7609e-05
-1.19848e-05
-1.85015e-05
-5.93256e-06
-1.92201e-05
-1.91717e-05
2.59844e-06
-2.32205e-05
1.65726e-06
1.43162e-05
-1.61052e-05
6.2854e-05
-2.02484e-05
2.40133e-05
-2.94536e-05
3.69784e-05
-3.61516e-05
2.59281e-05
-4.01863e-05
1.7134e-05
-4.31314e-05
1.16589e-05
-4.44272e-05
5.38449e-06
-4.40548e-05
-8.74678e-07
-4.22858e-05
-6.55869e-06
-3.92342e-05
-1.1555e-05
-3.51062e-05
-1.58588e-05
-3.01177e-05
-1.93176e-05
-2.45558e-05
-2.18235e-05
-1.85891e-05
-2.35755e-05
-1.24563e-05
-2.46342e-05
-6.18841e-06
-2.54878e-05
-2.53601e-05
-1.82531e-06
-2.13951e-05
-2.81351e-06
1.53043e-05
-2.34514e-05
8.34919e-05
-2.238e-05
2.29419e-05
-3.06081e-05
4.52065e-05
-3.7634e-05
3.2954e-05
-4.13768e-05
2.08769e-05
-4.42947e-05
1.45767e-05
-4.5574e-05
6.66378e-06
-4.51542e-05
-1.29439e-06
-4.32366e-05
-8.47632e-06
-4.00543e-05
-1.47374e-05
-3.57883e-05
-2.01249e-05
-3.07021e-05
-2.44038e-05
-2.50142e-05
-2.75113e-05
-1.89799e-05
-2.96097e-05
-1.27352e-05
-3.08786e-05
-6.34175e-06
-3.18813e-05
-3.17019e-05
-7.85752e-06
-1.35376e-05
-8.13241e-06
1.55792e-05
-3.32476e-05
0.000108607
-2.61753e-05
1.58696e-05
-3.19238e-05
5.09549e-05
-3.98524e-05
4.08824e-05
-4.28966e-05
2.3921e-05
-4.5614e-05
1.7294e-05
-4.70907e-05
8.14054e-06
-4.65608e-05
-1.82427e-06
-4.44485e-05
-1.05885e-05
-4.10866e-05
-1.80995e-05
-3.66172e-05
-2.45943e-05
-3.13293e-05
-2.96917e-05
-2.54555e-05
-3.33849e-05
-1.9288e-05
-3.57769e-05
-1.29296e-05
-3.72369e-05
-6.4384e-06
-3.83725e-05
-3.81404e-05
-3.63181e-05
2.27805e-05
-3.14113e-05
1.06723e-05
-5.32017e-05
0.000130398
-2.93636e-05
-7.96841e-06
-3.13945e-05
5.29859e-05
-4.23144e-05
5.18022e-05
-4.45557e-05
2.61623e-05
-4.69958e-05
1.97341e-05
-4.87235e-05
9.86826e-06
-4.81199e-05
-2.42781e-06
-4.58605e-05
-1.28478e-05
-4.2341e-05
-2.16191e-05
-3.76305e-05
-2.9305e-05
-3.20848e-05
-3.52374e-05
-2.59809e-05
-3.94886e-05
-1.96232e-05
-4.21344e-05
-1.31114e-05
-4.37487e-05
-6.52167e-06
-4.49624e-05
-4.46622e-05
-7.45251e-05
9.73056e-05
-5.5067e-05
-8.7857e-06
-7.22663e-05
0.000147597
-3.39318e-05
-4.63029e-05
-3.05514e-05
4.96055e-05
-4.60765e-05
6.73273e-05
-4.64149e-05
2.65007e-05
-4.81133e-05
2.14326e-05
-5.05867e-05
1.23418e-05
-4.95183e-05
-3.49621e-06
-4.71155e-05
-1.52505e-05
-4.36647e-05
-2.50701e-05
-3.8816e-05
-3.41537e-05
-3.29714e-05
-4.10818e-05
-2.65677e-05
-4.58922e-05
-1.99854e-05
-4.87167e-05
-1.33384e-05
-5.03959e-05
-6.62905e-06
-5.1672e-05
-5.12913e-05
2.99563e-06
7.20877e-06
1.1685e-05
-3.23704e-05
2.28508e-05
-5.59409e-05
3.3252e-05
-6.01728e-05
4.20248e-05
-5.39725e-05
4.98015e-05
-4.56416e-05
5.73664e-05
-3.89691e-05
6.50464e-05
-3.4435e-05
7.27722e-05
-3.12793e-05
8.02981e-05
-2.86093e-05
8.73555e-05
-2.57405e-05
9.3724e-05
-2.22279e-05
9.92342e-05
-1.779e-05
0.00010369
-1.21799e-05
0.000106872
-5.24949e-06
0.000108852
2.76315e-06
0.000109189
1.25033e-05
0.000107845
2.35037e-05
0.000104818
3.58034e-05
9.97809e-05
4.91332e-05
9.29412e-05
6.47341e-05
8.60923e-05
8.08325e-05
0.000110673
7.74235e-05
6.89529e-06
3.13479e-07
1.71972e-05
-4.26723e-05
2.67827e-05
-6.55264e-05
3.47872e-05
-6.81772e-05
4.19287e-05
-6.1114e-05
4.91737e-05
-5.28866e-05
5.69754e-05
-4.67708e-05
6.52468e-05
-4.27064e-05
7.36467e-05
-3.96792e-05
8.18078e-05
-3.67704e-05
8.94367e-05
-3.33694e-05
9.63495e-05
-2.91408e-05
0.0001025
-2.39403e-05
0.000108024
-1.77039e-05
0.000112958
-1.01834e-05
0.000115765
-4.40643e-08
0.000117944
1.03239e-05
0.000118627
2.28207e-05
0.000117975
3.64559e-05
0.000116435
5.06728e-05
0.000115291
6.58788e-05
0.000115204
8.09197e-05
0.000104745
0.000121132
1.31374e-05
-1.28239e-05
2.74322e-05
-5.69671e-05
3.43401e-05
-7.24343e-05
3.78112e-05
-7.16484e-05
4.25466e-05
-6.58494e-05
4.96101e-05
-5.99501e-05
5.82277e-05
-5.53884e-05
6.7513e-05
-5.19916e-05
7.68778e-05
-4.90439e-05
8.59457e-05
-4.58383e-05
9.44502e-05
-4.1874e-05
0.000102178
-3.68685e-05
0.000108859
-3.06218e-05
0.000114189
-2.30337e-05
0.000118175
-1.41694e-05
0.000122598
-4.46716e-06
0.000125308
7.61473e-06
0.000126462
2.16658e-05
0.000127126
3.57923e-05
0.000127953
4.98461e-05
0.000129626
6.42055e-05
0.000131638
7.89077e-05
9.48767e-05
0.000141506
2.3251e-05
-3.60749e-05
4.4302e-05
-7.80181e-05
4.66595e-05
-7.47918e-05
4.32175e-05
-6.82064e-05
4.49228e-05
-6.75547e-05
5.21994e-05
-6.72267e-05
6.19622e-05
-6.51512e-05
7.23595e-05
-6.23889e-05
8.27563e-05
-5.94408e-05
9.30028e-05
-5.60848e-05
0.000103123
-5.19942e-05
0.000113163
-4.69085e-05
0.000123082
-4.05405e-05
0.000132831
-3.27832e-05
0.000142058
-2.33965e-05
0.000149632
-1.20405e-05
0.00015299
4.25647e-06
0.000152501
2.21551e-05
0.000149885
3.84074e-05
0.000147079
5.26528e-05
0.000145254
6.603e-05
0.000145217
7.89452e-05
8.98425e-05
0.000150251
3.3084e-05
-6.91589e-05
5.73839e-05
-0.000102318
5.4306e-05
-7.17139e-05
4.51296e-05
-5.903e-05
4.28544e-05
-6.52795e-05
4.80001e-05
-7.23725e-05
5.52009e-05
-7.2352e-05
6.24024e-05
-6.95904e-05
6.90326e-05
-6.6071e-05
7.48507e-05
-6.19029e-05
7.89898e-05
-5.61332e-05
7.81583e-05
-4.60771e-05
8.01812e-05
-4.25634e-05
8.96196e-05
-4.22216e-05
0.000105722
-3.94984e-05
0.000132861
-3.91799e-05
0.000164895
-2.77772e-05
0.000178702
8.34747e-06
0.00017929
3.78198e-05
0.000176084
5.58592e-05
0.000171938
7.01753e-05
0.000167534
8.33496e-05
9.09584e-05
0.000166418
3.68768e-05
-0.000106036
3.10608e-05
-9.6502e-05
2.83941e-05
-6.90471e-05
2.33525e-05
-5.39884e-05
1.81595e-05
-6.00865e-05
1.37424e-05
-6.79555e-05
1.06527e-05
-6.92623e-05
7.98694e-06
-6.69247e-05
6.19323e-06
-6.42774e-05
6.91599e-06
-6.26258e-05
1.24998e-05
-6.17171e-05
2.59797e-05
-5.95571e-05
3.95914e-05
-5.61751e-05
4.67996e-05
-4.94298e-05
5.0893e-05
-4.35918e-05
5.92441e-05
-4.7531e-05
8.81018e-05
-5.66349e-05
0.000136593
-4.01436e-05
0.000173157
1.25514e-06
0.000188516
4.05002e-05
0.000182726
7.59656e-05
0.000174582
9.14939e-05
8.9332e-05
0.000176208
-1.92571e-05
-8.67786e-05
-2.13781e-05
-9.43809e-05
-1.65428e-05
-7.38824e-05
-2.64197e-06
-6.78893e-05
3.32369e-06
-6.60523e-05
2.96257e-06
-6.75945e-05
1.07989e-06
-6.73797e-05
-1.01136e-07
-6.57438e-05
5.16811e-07
-6.48954e-05
4.04463e-06
-6.61537e-05
1.11078e-05
-6.87803e-05
2.14905e-05
-6.99399e-05
3.16403e-05
-6.63248e-05
3.62829e-05
-5.40724e-05
3.73047e-05
-4.46136e-05
5.4078e-05
-6.43043e-05
8.66359e-05
-8.91928e-05
0.000130064
-8.35714e-05
0.000182238
-5.09194e-05
0.000220734
2.00419e-06
0.000231324
6.53761e-05
0.000219298
0.00010352
0.000110692
0.000197937
-2.14186e-05
-6.53599e-05
-2.0328e-05
-9.54715e-05
-1.07052e-05
-8.35051e-05
-4.247e-06
-7.43476e-05
-2.98472e-07
-7.00009e-05
1.24247e-06
-6.91356e-05
1.70544e-06
-6.78428e-05
2.21532e-06
-6.62537e-05
3.46167e-06
-6.61418e-05
5.83652e-06
-6.85286e-05
9.4831e-06
-7.24269e-05
1.43091e-05
-7.47659e-05
1.94434e-05
-7.14591e-05
2.25844e-05
-5.72134e-05
2.78665e-05
-4.98957e-05
4.94889e-05
-8.59267e-05
7.25928e-05
-0.000112297
9.82526e-05
-0.000109231
0.000132139
-8.48053e-05
0.000168344
-3.42014e-05
0.000199722
3.3998e-05
0.000214039
8.92028e-05
0.000112871
0.000211861
-7.45381e-06
-5.7906e-05
-6.54127e-06
-9.63841e-05
-4.4104e-06
-8.56361e-05
-1.99184e-06
-7.67662e-05
8.8008e-07
-7.28729e-05
2.96662e-06
-7.12222e-05
4.4776e-06
-6.93538e-05
5.60616e-06
-6.73823e-05
6.3738e-06
-6.69095e-05
6.78641e-06
-6.89412e-05
7.03703e-06
-7.26775e-05
7.74646e-06
-7.54754e-05
1.01195e-05
-7.38322e-05
1.64754e-05
-6.35694e-05
2.84977e-05
-6.1918e-05
3.2142e-05
-8.9571e-05
3.04426e-05
-0.000110597
3.36137e-05
-0.000112402
4.0274e-05
-9.14657e-05
6.11616e-05
-5.50891e-05
9.40519e-05
1.10772e-06
0.000133286
4.99681e-05
8.50245e-05
0.000161132
-1.62153e-06
-5.62845e-05
-2.5341e-06
-9.54715e-05
-1.67347e-06
-8.64968e-05
2.52424e-07
-7.86922e-05
2.67588e-06
-7.52965e-05
4.93626e-06
-7.34827e-05
6.98175e-06
-7.13994e-05
8.73654e-06
-6.91371e-05
9.85443e-06
-6.80273e-05
1.00264e-05
-6.91131e-05
9.31351e-06
-7.19646e-05
8.59116e-06
-7.47531e-05
9.75178e-06
-7.49929e-05
1.68385e-05
-7.0656e-05
2.52768e-05
-7.03563e-05
2.02147e-05
-8.45088e-05
1.16823e-05
-0.000102065
4.55943e-06
-0.000105279
8.90232e-07
-8.77965e-05
-9.97664e-08
-5.40991e-05
1.46956e-05
-1.36876e-05
3.78852e-05
2.67786e-05
5.40113e-05
6.88985e-05
6.31139e-07
-5.69156e-05
1.60631e-07
-9.5001e-05
8.06711e-07
-8.71429e-05
2.41094e-06
-8.02966e-05
4.64437e-06
-7.753e-05
7.01314e-06
-7.58515e-05
9.52264e-06
-7.39089e-05
1.21103e-05
-7.17246e-05
1.43284e-05
-7.02454e-05
1.56238e-05
-7.04084e-05
1.58447e-05
-7.21856e-05
1.56146e-05
-7.4523e-05
1.64653e-05
-7.58436e-05
2.13779e-05
-7.55686e-05
2.73644e-05
-7.63428e-05
2.54224e-05
-8.25667e-05
1.39386e-05
-9.05809e-05
1.85033e-06
-9.31911e-05
6.17676e-07
-8.65639e-05
8.19852e-06
-6.168e-05
2.02834e-05
-2.57726e-05
4.35325e-05
3.52936e-06
2.12949e-05
7.6249e-05
1.73559e-06
-5.86513e-05
1.94316e-06
-9.52086e-05
2.67581e-06
-8.78756e-05
4.29428e-06
-8.19151e-05
6.46434e-06
-7.97001e-05
8.9223e-06
-7.83095e-05
1.17237e-05
-7.67103e-05
1.48961e-05
-7.48969e-05
1.80903e-05
-7.34396e-05
2.07262e-05
-7.30443e-05
2.24676e-05
-7.3927e-05
2.34978e-05
-7.55534e-05
2.46462e-05
-7.69921e-05
2.70087e-05
-7.79312e-05
2.95702e-05
-7.89042e-05
2.79823e-05
-8.09787e-05
2.01463e-05
-8.27448e-05
7.87649e-06
-8.09212e-05
-3.09604e-06
-7.55914e-05
-1.89723e-06
-6.28789e-05
7.81144e-06
-3.54813e-05
2.1229e-05
-9.88836e-06
5.70568e-06
3.68181e-05
2.29996e-06
-6.09512e-05
3.0385e-06
-9.59471e-05
4.06171e-06
-8.88988e-05
5.79948e-06
-8.36529e-05
7.98706e-06
-8.18878e-05
1.04705e-05
-8.0793e-05
1.33178e-05
-7.95576e-05
1.66131e-05
-7.81921e-05
2.01676e-05
-7.69941e-05
2.35216e-05
-7.63983e-05
2.62387e-05
-7.66442e-05
2.81771e-05
-7.74919e-05
2.95832e-05
-7.83983e-05
3.06398e-05
-7.89877e-05
3.09438e-05
-7.92082e-05
2.91077e-05
-7.91426e-05
2.44232e-05
-7.80603e-05
1.78971e-05
-7.43952e-05
9.59651e-06
-6.72908e-05
2.55952e-06
-5.58419e-05
5.73359e-06
-3.86554e-05
1.71392e-05
-2.12941e-05
-8.25126e-06
3.1096e-05
2.58256e-06
-6.35338e-05
3.7464e-06
-9.71109e-05
5.08302e-06
-9.02355e-05
6.97414e-06
-8.55441e-05
9.21809e-06
-8.41318e-05
1.17074e-05
-8.32823e-05
1.44745e-05
-8.23248e-05
1.75871e-05
-8.13046e-05
2.097e-05
-8.03771e-05
2.43268e-05
-7.97552e-05
2.7263e-05
-7.95806e-05
2.95216e-05
-7.97506e-05
3.10721e-05
-7.99489e-05
3.19426e-05
-7.98582e-05
3.20377e-05
-7.93033e-05
3.10336e-05
-7.81385e-05
2.88345e-05
-7.58612e-05
2.60842e-05
-7.16449e-05
2.3633e-05
-6.48395e-05
2.30166e-05
-5.52255e-05
2.73575e-05
-4.29964e-05
3.63229e-05
-3.02595e-05
-1.91916e-05
4.72634e-05
2.68306e-06
-6.62168e-05
4.2264e-06
-9.86542e-05
5.84941e-06
-9.18585e-05
7.89425e-06
-8.7589e-05
1.02092e-05
-8.64468e-05
1.27143e-05
-8.57874e-05
1.54064e-05
-8.50168e-05
1.83051e-05
-8.42033e-05
2.13749e-05
-8.3447e-05
2.445e-05
-8.28304e-05
2.72678e-05
-8.23985e-05
2.96105e-05
-8.20934e-05
3.14007e-05
-8.17391e-05
3.26517e-05
-8.11091e-05
3.33534e-05
-8.0005e-05
3.34361e-05
-7.82212e-05
3.30079e-05
-7.54329e-05
3.25354e-05
-7.11724e-05
3.27722e-05
-6.50763e-05
3.46884e-05
-5.71417e-05
3.94681e-05
-4.77762e-05
4.71444e-05
-3.79359e-05
-2.86482e-05
5.66009e-05
2.72164e-06
-6.89384e-05
4.57182e-06
-0.000100504
6.4313e-06
-9.3718e-05
8.6147e-06
-8.97725e-05
1.10075e-05
-8.88396e-05
1.35482e-05
-8.83281e-05
1.62216e-05
-8.76902e-05
1.90158e-05
-8.69976e-05
2.18956e-05
-8.63268e-05
2.47714e-05
-8.57063e-05
2.75044e-05
-8.51316e-05
2.99639e-05
-8.45529e-05
3.20852e-05
-8.38604e-05
3.38708e-05
-8.28946e-05
3.53478e-05
-8.14821e-05
3.65573e-05
-7.94307e-05
3.76369e-05
-7.65126e-05
3.894e-05
-7.24754e-05
4.10129e-05
-6.71491e-05
4.44548e-05
-6.05836e-05
4.97888e-05
-5.31102e-05
5.71066e-05
-4.52537e-05
-3.75031e-05
6.59615e-05
2.74991e-06
-7.16882e-05
4.83116e-06
-0.000102586
6.87829e-06
-9.57651e-05
9.18395e-06
-9.20781e-05
1.16554e-05
-9.1311e-05
1.42436e-05
-9.09164e-05
1.69388e-05
-9.03854e-05
1.97235e-05
-8.97823e-05
2.25632e-05
-8.91666e-05
2.54051e-05
-8.85483e-05
2.81814e-05
-8.7908e-05
3.08256e-05
-8.7197e-05
3.3297e-05
-8.63318e-05
3.55993e-05
-8.5197e-05
3.77741e-05
-8.3657e-05
3.9905e-05
-8.15615e-05
4.21422e-05
-7.87498e-05
4.47414e-05
-7.50746e-05
4.80576e-05
-7.04653e-05
5.24656e-05
-6.49916e-05
5.82511e-05
-5.88957e-05
6.54897e-05
-5.24923e-05
-4.59913e-05
7.3978e-05
2.78488e-06
-7.44731e-05
5.03324e-06
-0.000104834
7.22515e-06
-9.7957e-05
9.63614e-06
-9.44891e-05
1.21827e-05
-9.38576e-05
1.48234e-05
-9.3557e-05
1.75564e-05
-9.31184e-05
2.03728e-05
-9.25988e-05
2.32486e-05
-9.20425e-05
2.61508e-05
-9.14504e-05
2.90427e-05
-9.07999e-05
3.18929e-05
-9.00472e-05
3.46872e-05
-8.91261e-05
3.74404e-05
-8.79502e-05
4.02011e-05
-8.64177e-05
4.30568e-05
-8.44172e-05
4.61454e-05
-8.18384e-05
4.9666e-05
-7.85952e-05
5.38637e-05
-7.46631e-05
5.89807e-05
-7.01085e-05
6.51915e-05
-6.51065e-05
7.25475e-05
-5.98483e-05
-5.43838e-05
8.094e-05
2.83125e-06
-7.73043e-05
5.19402e-06
-0.000107197
7.49491e-06
-0.000100258
9.99441e-06
-9.69886e-05
1.26101e-05
-9.64733e-05
1.5305e-05
-9.6252e-05
1.80831e-05
-9.58965e-05
2.09445e-05
-9.54602e-05
2.38789e-05
-9.49768e-05
2.68688e-05
-9.44403e-05
2.98966e-05
-9.38277e-05
3.29518e-05
-9.31024e-05
3.60387e-05
-9.22129e-05
3.91831e-05
-9.10946e-05
4.24377e-05
-8.96723e-05
4.58869e-05
-8.78664e-05
4.96509e-05
-8.56025e-05
5.38847e-05
-8.28289e-05
5.87613e-05
-7.95397e-05
6.44418e-05
-7.5789e-05
7.10392e-05
-7.17039e-05
7.85867e-05
-6.73957e-05
-6.28218e-05
8.70247e-05
2.88663e-06
-8.01909e-05
5.32153e-06
-0.000109631
7.70204e-06
-0.000102638
1.0274e-05
-9.95605e-05
1.29504e-05
-9.91497e-05
1.56982e-05
-9.89998e-05
1.85254e-05
-9.87237e-05
2.1439e-05
-9.83738e-05
2.44389e-05
-9.79767e-05
2.75218e-05
-9.75232e-05
3.06854e-05
-9.69913e-05
3.39336e-05
-9.63507e-05
3.72824e-05
-9.55617e-05
4.07644e-05
-9.45767e-05
4.44336e-05
-9.33415e-05
4.83677e-05
-9.18004e-05
5.26681e-05
-8.9903e-05
5.74556e-05
-8.76164e-05
6.28562e-05
-8.49403e-05
6.89839e-05
-8.19167e-05
7.59206e-05
-7.86405e-05
8.36916e-05
-7.51668e-05
-7.13957e-05
9.22654e-05
2.94635e-06
-8.31372e-05
5.41888e-06
-0.000112104
7.85459e-06
-0.000105074
1.04835e-05
-0.000102189
1.32103e-05
-0.000101876
1.60054e-05
-0.000101795
1.8881e-05
-0.000101599
2.18491e-05
-0.000101342
2.49169e-05
-0.000101045
2.80912e-05
-0.000100697
3.13808e-05
-0.000100281
3.48003e-05
-9.97702e-05
3.83733e-05
-9.91348e-05
4.21366e-05
-9.83399e-05
4.61426e-05
-9.73475e-05
5.04617e-05
-9.61195e-05
5.51803e-05
-9.46216e-05
6.03959e-05
-9.2832e-05
6.62065e-05
-9.07508e-05
7.27002e-05
-8.84103e-05
7.99423e-05
-8.58827e-05
8.79565e-05
-8.3181e-05
-8.01703e-05
9.67311e-05
3.00496e-06
-8.61422e-05
5.48585e-06
-0.000114585
7.95645e-06
-0.000107545
1.06272e-05
-0.00010486
1.33923e-05
-0.000104642
1.62254e-05
-0.000104628
1.91426e-05
-0.000104517
2.21601e-05
-0.000104359
2.52905e-05
-0.000104175
2.85471e-05
-0.000103954
3.19461e-05
-0.00010368
3.5509e-05
-0.000103333
3.9265e-05
-0.000102891
4.32526e-05
-0.000102327
4.75232e-05
-0.000101618
5.21407e-05
-0.000100737
5.71808e-05
-9.96617e-05
6.27259e-05
-9.8377e-05
6.88576e-05
-9.68824e-05
7.56501e-05
-9.52028e-05
8.31619e-05
-9.33946e-05
9.14206e-05
-9.14397e-05
-8.91846e-05
0.000100435
3.05656e-06
-8.91987e-05
5.52115e-06
-0.000117049
8.00972e-06
-0.000110033
1.07069e-05
-0.000107557
1.34967e-05
-0.000107431
1.63554e-05
-0.000107487
1.93028e-05
-0.000107464
2.23584e-05
-0.000107415
2.55387e-05
-0.000107355
2.88614e-05
-0.000107277
3.23475e-05
-0.000107166
3.6023e-05
-0.000107009
3.99198e-05
-0.000106787
4.40779e-05
-0.000106486
4.85469e-05
-0.000106087
5.33865e-05
-0.000105576
5.86649e-05
-0.00010494
6.44554e-05
-0.000104167
7.08307e-05
-0.000103258
7.78595e-05
-0.000102232
8.56003e-05
-0.000101135
9.409e-05
-9.99294e-05
-9.84552e-05
0.000103361
3.09533e-06
-9.22939e-05
5.52487e-06
-0.000119479
8.01696e-06
-0.000112525
1.07249e-05
-0.000110265
1.35237e-05
-0.00011023
1.63933e-05
-0.000110357
1.93563e-05
-0.000110427
2.24343e-05
-0.000110493
2.56466e-05
-0.000110568
2.90141e-05
-0.000110644
3.25609e-05
-0.000110713
3.63152e-05
-0.000110763
4.03108e-05
-0.000110783
4.45879e-05
-0.000110763
4.91945e-05
-0.000110693
5.41869e-05
-0.000110569
5.96287e-05
-0.000110382
6.5588e-05
-0.000110127
7.2134e-05
-0.000109804
7.9335e-05
-0.000109433
8.72544e-05
-0.000109055
9.59442e-05
-0.000108619
-0.000107972
0.000105461
3.117e-06
-9.54108e-05
5.5001e-06
-0.000121861
7.98281e-06
-0.000115008
1.06846e-05
-0.000112967
1.34753e-05
-0.000113021
1.63387e-05
-0.00011322
1.92998e-05
-0.000113388
2.23813e-05
-0.000113574
2.56044e-05
-0.000113791
2.89918e-05
-0.000114032
3.25696e-05
-0.000114291
3.63672e-05
-0.00011456
4.0419e-05
-0.000114835
4.47651e-05
-0.000115108
4.94518e-05
-0.00011538
5.45325e-05
-0.000115649
6.00675e-05
-0.000115916
6.61223e-05
-0.000116182
7.27658e-05
-0.000116447
8.00689e-05
-0.000116736
8.81029e-05
-0.000117089
9.69399e-05
-0.000117456
-0.000117694
0.000106662
3.12068e-06
-9.85314e-05
5.45271e-06
-0.000124193
7.91343e-06
-0.000117468
1.05912e-05
-0.000115645
1.33551e-05
-0.000115785
1.6194e-05
-0.000116059
1.91337e-05
-0.000116328
2.21974e-05
-0.000116638
2.54073e-05
-0.000117
2.87872e-05
-0.000117411
3.2364e-05
-0.000117867
3.61678e-05
-0.000118364
4.0233e-05
-0.0001189
4.45987e-05
-0.000119474
4.93097e-05
-0.000120091
5.44167e-05
-0.000120756
5.9977e-05
-0.000121477
6.60545e-05
-0.000122259
7.27186e-05
-0.000123111
8.00433e-05
-0.00012406
8.81093e-05
-0.000125155
9.70113e-05
-0.000126358
-0.000127538
0.000106856
3.10973e-06
-0.000101641
5.38908e-06
-0.000126473
7.8138e-06
-0.000119893
1.04487e-05
-0.00011828
1.31674e-05
-0.000118503
1.59629e-05
-0.000118854
1.88608e-05
-0.000119226
2.18843e-05
-0.000119662
2.50558e-05
-0.000120172
2.83996e-05
-0.000120755
3.19427e-05
-0.00012141
3.57152e-05
-0.000122136
3.97508e-05
-0.000122935
4.40875e-05
-0.000123811
4.8768e-05
-0.000124771
5.38403e-05
-0.000125828
5.93587e-05
-0.000126995
6.53847e-05
-0.000128285
7.19873e-05
-0.000129714
7.92425e-05
-0.000131316
8.72379e-05
-0.00013315
9.60884e-05
-0.000135209
-0.000137373
0.000105923
3.09065e-06
-0.000104732
5.31262e-06
-0.000128695
7.68449e-06
-0.000122265
1.02582e-05
-0.000120853
1.29139e-05
-0.000121159
1.56476e-05
-0.000121588
1.84839e-05
-0.000122062
2.14454e-05
-0.000122623
2.45541e-05
-0.000123281
2.78342e-05
-0.000124035
3.13122e-05
-0.000124888
3.50174e-05
-0.000125842
3.89824e-05
-0.0001269
4.32435e-05
-0.000128072
4.78412e-05
-0.000129369
5.28203e-05
-0.000130807
5.8231e-05
-0.000132406
6.41313e-05
-0.000134185
7.05874e-05
-0.00013617
7.76741e-05
-0.000138402
8.54808e-05
-0.000140957
9.41344e-05
-0.000143862
-0.000147019
0.00010378
3.06977e-06
-0.000107801
5.22081e-06
-0.000130846
7.52031e-06
-0.000124564
1.00159e-05
-0.000123349
1.25922e-05
-0.000123735
1.52471e-05
-0.000124243
1.80038e-05
-0.000124818
2.08837e-05
-0.000125503
2.3908e-05
-0.000126305
2.71001e-05
-0.000127227
3.04853e-05
-0.000128273
3.40917e-05
-0.000129448
3.79502e-05
-0.000130759
4.20949e-05
-0.000132217
4.65633e-05
-0.000133837
5.13963e-05
-0.00013564
5.66396e-05
-0.000137649
6.23454e-05
-0.000139891
6.85744e-05
-0.000142399
7.53959e-05
-0.000145224
8.28936e-05
-0.000148454
9.11935e-05
-0.000152162
-0.00015627
0.000100445
3.05005e-06
-0.000110851
5.1049e-06
-0.0001329
7.31177e-06
-0.000126771
9.71407e-06
-0.000125751
1.21959e-05
-0.000126217
1.47564e-05
-0.000126803
1.74173e-05
-0.000127479
2.01988e-05
-0.000128284
2.31208e-05
-0.000129227
2.62052e-05
-0.000130312
2.94759e-05
-0.000131544
3.2959e-05
-0.000132931
3.6683e-05
-0.000134483
4.06794e-05
-0.000136213
4.4982e-05
-0.00013814
4.96275e-05
-0.000140286
5.46557e-05
-0.000142677
6.0112e-05
-0.000145347
6.60487e-05
-0.000148336
7.25249e-05
-0.0001517
7.96107e-05
-0.00015554
8.74149e-05
-0.000159966
-0.000164932
9.60762e-05
3.03033e-06
-0.000113882
4.95287e-06
-0.000134823
7.04785e-06
-0.000128866
9.34265e-06
-0.000128046
1.1715e-05
-0.00012859
1.41656e-05
-0.000129254
1.67153e-05
-0.000130029
1.93828e-05
-0.000130952
2.21869e-05
-0.000132031
2.51476e-05
-0.000133272
2.82867e-05
-0.000134683
3.1628e-05
-0.000136272
3.51975e-05
-0.000138052
3.90231e-05
-0.000140038
4.31351e-05
-0.000142252
4.75651e-05
-0.000144716
5.23473e-05
-0.000147459
5.75191e-05
-0.000150519
6.31227e-05
-0.000153939
6.92038e-05
-0.000157781
7.58125e-05
-0.000162149
8.30245e-05
-0.000167178
-0.000172858
9.09511e-05
3.00728e-06
-0.000116889
4.75297e-06
-0.000136569
6.71738e-06
-0.000130831
8.88952e-06
-0.000130218
1.11356e-05
-0.000130836
1.34586e-05
-0.000131577
1.58794e-05
-0.00013245
1.84154e-05
-0.000133488
2.10838e-05
-0.000134699
2.3903e-05
-0.000136091
2.68929e-05
-0.000137673
3.00746e-05
-0.000139454
3.34715e-05
-0.000141449
3.71082e-05
-0.000143675
4.10111e-05
-0.000146155
4.52075e-05
-0.000148912
4.97261e-05
-0.000151978
5.45969e-05
-0.00015539
5.98517e-05
-0.000159194
6.55225e-05
-0.000163452
7.16366e-05
-0.000168263
7.82267e-05
-0.000173768
-0.000179992
8.53609e-05
2.97706e-06
-0.000119866
4.49538e-06
-0.000138087
6.30912e-06
-0.000132644
8.3403e-06
-0.000132249
1.04389e-05
-0.000132934
1.26124e-05
-0.00013375
1.4881e-05
-0.000134718
1.72612e-05
-0.000135868
1.97691e-05
-0.000137207
2.24215e-05
-0.000138744
2.52362e-05
-0.000140488
2.82325e-05
-0.00014245
3.14309e-05
-0.000144647
3.48536e-05
-0.000147098
3.85239e-05
-0.000149825
4.24658e-05
-0.000152854
4.67035e-05
-0.000156216
5.12611e-05
-0.000159947
5.61624e-05
-0.000164095
6.14279e-05
-0.000168717
6.70652e-05
-0.0001739
7.30678e-05
-0.000179771
-0.000186377
7.94525e-05
2.93446e-06
-0.000122801
4.17269e-06
-0.000139325
5.81365e-06
-0.000134285
7.68067e-06
-0.000134116
9.60534e-06
-0.000134859
1.16012e-05
-0.000135746
1.36877e-05
-0.000136805
1.58802e-05
-0.00013806
1.81934e-05
-0.00013952
2.06429e-05
-0.000141193
2.32444e-05
-0.000143089
2.60156e-05
-0.000145221
2.8975e-05
-0.000147607
3.2143e-05
-0.000150266
3.55408e-05
-0.000153223
3.919e-05
-0.000156503
4.31121e-05
-0.000160138
4.73276e-05
-0.000164163
5.18554e-05
-0.000168623
5.67096e-05
-0.000173571
6.18874e-05
-0.000179078
6.73591e-05
-0.000185243
-0.000192121
7.31033e-05
2.87016e-06
-0.000125671
3.78196e-06
-0.000140237
5.22908e-06
-0.000135732
6.90448e-06
-0.000135792
8.62587e-06
-0.00013658
1.0413e-05
-0.000137533
1.2284e-05
-0.000138676
1.42524e-05
-0.000140029
1.63315e-05
-0.000141599
1.8535e-05
-0.000143397
2.08771e-05
-0.000145431
2.33737e-05
-0.000147718
2.6042e-05
-0.000150275
2.89006e-05
-0.000153125
3.19692e-05
-0.000156291
3.5268e-05
-0.000159802
3.88166e-05
-0.000163686
4.26334e-05
-0.00016798
4.67353e-05
-0.000172725
5.11336e-05
-0.00017797
5.5826e-05
-0.00018377
6.07804e-05
-0.000190197
-0.000197306
6.59647e-05
2.76827e-06
-0.000128439
3.32857e-06
-0.000140798
4.56772e-06
-0.000136972
6.02453e-06
-0.000137248
7.51683e-06
-0.000138072
9.06782e-06
-0.000139084
1.06936e-05
-0.000140302
1.24052e-05
-0.00014174
1.4214e-05
-0.000143408
1.61317e-05
-0.000145314
1.81713e-05
-0.000147471
2.03468e-05
-0.000149894
2.26736e-05
-0.000152602
2.51685e-05
-0.00015562
2.78496e-05
-0.000158972
3.07354e-05
-0.000162688
3.38435e-05
-0.000166795
3.71905e-05
-0.000171327
4.07912e-05
-0.000176326
4.46559e-05
-0.000181834
4.87861e-05
-0.0001879
5.31611e-05
-0.000194572
-0.000201905
5.77607e-05
2.60707e-06
-0.000131046
2.82827e-06
-0.000141019
3.85681e-06
-0.000138
5.07575e-06
-0.000138467
6.32328e-06
-0.00013932
7.62123e-06
-0.000140382
8.98271e-06
-0.000141663
1.04165e-05
-0.000143174
1.19316e-05
-0.000144923
1.3538e-05
-0.000146921
1.5247e-05
-0.00014918
1.70712e-05
-0.000151718
1.90237e-05
-0.000154555
2.11191e-05
-0.000157715
2.33731e-05
-0.000161227
2.58014e-05
-0.000165116
2.84185e-05
-0.000169412
3.12384e-05
-0.000174147
3.42732e-05
-0.00017936
3.75315e-05
-0.000185093
4.10155e-05
-0.000191384
4.47154e-05
-0.000198272
-0.000205812
4.86223e-05
2.3618e-06
-0.000133408
2.30298e-06
-0.00014096
3.12878e-06
-0.000138826
4.10186e-06
-0.000139441
5.10036e-06
-0.000140319
6.14057e-06