/*--------------------------------*- C++ -*----------------------------------*\
  =========                 |
  \\      /  F ield         | OpenFOAM: The Open Source CFD Toolbox
   \\    /   O peration     | Website:  https://openfoam.org
    \\  /    A nd           | Version:  13
     \\/     M anipulation  |
\*---------------------------------------------------------------------------*/
FoamFile
{
    format      ascii;
    class       volScalarField;
    location    "0.35";
    object      rho;
}
// * * * * * * * * * * * * * * * * * * * * * * * * * * * * * * * * * * * * * //

dimensions      [1 -3 0 0 0 0 0];

internalField   nonuniform List<scalar> 
2268
(
1000
1000
1000
1000
1000
1000
1000
1000
1000
1000
1000
1000
1000
1000
1000
1000
1000
1000
1000
990.405
838.471
838.318
895.736
1000
1000
1000
1000
1000
1000
1000
1000
1000
1000
1000
1000
1000
1000
1000
1000
1000
1000
1000
1000
944.652
903.706
998.626
1000
1000
1000
1000
1000
1000
1000
1000
1000
1000
1000
1000
1000
1000
1000
1000
1000
1000
1000
1000
999.997
997.692
998.608
1000
1000
1000
1000
1000
1000
1000
1000
1000
1000
1000
1000
1000
1000
1000
1000
1000
1000
1000
1000
1000
999.974
996.764
1000
1000
1000
1000
1000
1000
1000
1000
1000
1000
1000
1000
1000
1000
1000
1000
1000
1000
1000
1000
1000
1000
996.822
1000
1000
1000
1000
1000
1000
1000
1000
1000
1000
1000
1000
1000
1000
1000
1000
1000
1000
1000
1000
1000
1000
996.938
1000
1000
1000
1000
1000
1000
1000
1000
1000
1000
1000
1000
1000
1000
1000
1000
1000
1000
1000
1000
1000
1000
996.942
1000
1000
1000
1000
1000
1000
1000
1000
1000
1000
1000
1000
1000
1000
1000
1000
1000
1000
1000
1000
1000
1000
996.949
1
1
1
1
1
1
1
1
1
1
1
1
1
1
1
1
1
1
1
1
1.00003
1
1
1
1
1
1
1
1
1
1
1
1
1
1
1
1
1
1.00001
1.00063
1.00026
1
1
1
1
1
1
1
1
1
1
1
1
1
1
1
1
1.0011
1.00747
1.00002
1.00002
1
1
1
1
1
1
1
1
1
1
1
1
1
1
1
1.12229
1.13727
1.00566
1
1
1
1
1
1
1
1
1
1
1
1
1
1
1
1
2.30994
2.11455
1.08571
1
1
1
1
1
1
1
1
1
1
1
1
1
1
1
1
2.38763
1.88656
1.00708
1
1
1
1
1
1
1
1
1
1
1
1
1
1
1
1
1.08196
1.05096
1.01467
1.00003
1.00001
1.00002
1.00006
1.00003
1.00001
1
1
1
1
1
1
1
1
1
1
1000
1000
1000
1000
1000
1000
1000
1000
1000
1000
1000
1000
1000
1000
1000
1000
1000
1000
1000
1000
1000
1000
998.629
1000
1000
999.998
999.998
999.998
999.999
999.999
999.999
999.999
999.999
999.999
999.999
999.998
999.996
999.994
999.993
999.995
999.991
999.993
1000
1000
1000
1000
1000
999.99
999.922
999.916
999.928
999.935
999.945
999.945
999.939
999.926
999.917
999.9
999.91
999.831
999.659
999.514
999.998
1000
1000
1000
1000
1000
1000
999.994
987.207
904.309
901.238
898.424
881.982
859.19
833.797
803.452
767.125
726.749
686.606
650.641
620.32
610.155
628.95
674.105
749.595
846.794
966.412
1000
1000
999.999
855.212
450.635
195.185
195.563
187.744
159.077
129.694
104.041
78.8987
54.0034
31.391
12.9022
1
1
1
1.00012
5.05296
25.2284
71.6842
160.055
324.883
565.019
795.458
92.6388
1
1
1
1
1
1
1
1
1
1
1
1
1
1
1
1.00012
1.0121
1.10794
1.5269
1.43322
13.6806
79.1073
1
1
1
1
1
1
1
1
1
1
1
1.00016
1.00008
1
1
1.00517
1.21632
1.48754
1.56647
1.4957
1.24338
1.12387
1.19567
1
1
1
1
1
1
1
1
1
1
1.00023
1.00065
1.00046
1.00001
1
1.32278
2.04811
2.04844
2.04811
2.04819
1.31239
1.08209
1.08478
1
1
1
1
1
1
1
1
1
1
1.0006
1.00065
1.00046
1.00001
1
1.48523
1.99452
2.04811
2.04861
1.37671
1.08244
1.08045
1.08047
1
1
1
1
1
1
1
1
1
1
1.0002
1.00053
1.00007
1.00016
1.01163
1
1.06123
1.5761
2.03497
1.64978
1.09589
1.08047
1.08045
1
1
1
1
1
1
1
1
1
1
1
1
1
1.00062
1.00012
1
1
1
1.12741
1.64884
1.41841
1.30593
2.02044
1
1
1
1
1
1
1
1
1
1
1
1
1
1.00039
1.00019
1
1
1
1
1.18257
1.16675
1.06538
1.04462
1
1
1
1
1
1
1
1
1
1
1
1
1.00001
1
1
1
1
1
1
1
1
1
1
1
1
1
1
1
1
1
1
1
1
1
1
1
1
1
1
1
1
1
1
1
1
1
1
1
1
1
1
1
1
1
1
1
1
1
1
1
1
1
1
1
1
1
1
1
1
1
1
1
1
1
1
1
1
1
1
1
1
1
1
1
1
1
1
1
1
1
1
1
1
1
1
1
1
1
1
1
1
1
1
1
1
1
1
1
1
1
1
1
1
1
1
1
1
1
1
1
1
1
1
1
1
1
1
1
1
1
1
1
1
1
1
1
1
1
1
1
1
1
1
1
1
1
1
1
1
1
1
1
1
1
1
1
1
1
1
1
1
1
1
1
1
1
1
1
1
1
1
1
1
1
1
1
1
1
1
1
1
1
1
1
1
1
1
1
1
1
1
1
1
1
1
1
1
1
1
1
1
1
1
1
1
1
1
1
1
1
1
1
1
1
1
1
1
1
1
1
1
1
1
1
1
1
1
1
1
1
1
1
1
1
1
1
1
1
1
1
1
1
1
1
1
1
1
1
1
1
1
1
1
1
1
1
1
1
1
1
1
1
1
1
1
1
1
1
1
1
1
1
1
1
1
1
1
1
1
1
1
1
1
1
1
1
1
1
1
1
1
1
1
1
1
1
1
1
1
1
1
1
1
1
1
1
1
1
1
1
1
1
1
1
1
1
1
1
1
1
1
1
1
1
1
1
1
1
1
1
1
1
1
1
1
1
1
1
1
1
1
1
1
1
1
1
1
1
1
1
1
1
1
1
1
1
1
1
1
1
1
1
1
1
1
1
1
1
1
1
1
1
1
1
1
1
1
1
1
1
1
1
1
1
1
1
1
1
1
1
1
1
1
1
1
1
1
1
1
1
1
1
1
1
1
1
1
1
1
1
1
1
1
1
1
1
1
1
1
1
1
1
1
1
1
1
1
1
1
1
1
1
1
1
1
1
1
1
1
1
1
1
1
1
1
1
1
1
1
1
1
1
1
1
1
1
1
1
1
1
1
1
1
1
1
1
1
1
1
1
1
1
1
1
1
1
1
1
1
1
1
1
1
1
1
1
1
1
1
1
1
1
1
1
1
1
1
1
1
1
1
1
1
1
1
1
1
1
1
1
1
1
1
1
1
1
1
1
1
1
1
1
1
1
1
1
1
1
1
1
1
1
1
1
1
1
1
1
1
1
1
1
1
1
1
1
1
1
1
1
1
1
1
1
1
1
1
1
1
1
1
1
1
1
1
1
1
1
1
1
1
1
1
1
1
1
1
1
1
1
1
1
1
1
1
1
1
1
1
1
1
1
1
1
1
1
1
1
1
1
1
1
1
1
1
1
1
1
1
1
1
1
1
1
1
1
1
1
1
1
1
1
1
1
1
1
1
1
1
1
1
1
1
1
1
1
1
1
1
1
1
1
1
1
1
1
1
1
1
1
1
1
1
1
1
1
1
1
1
1
1
1
1
1
1
1
1
1
1
1
1
1
1
1
1
1
1
1
1
1
1
1
1
1
1
1
1
1
1
1
995.539
995.593
791.294
70.9805
997.782
997.47
990.864
821.525
999.833
999.911
999.921
999.101
999.994
999.987
999.978
999.96
926.902
989.694
999.96
999.753
161.013
227.64
322.422
428.128
1.38271
1.57191
2.22147
2.14594
1.09245
1.09949
1.11294
1.11351
1.08123
1.08361
1.08545
1.08606
1.08122
1.08328
1.08489
1.08544
2.06542
2.07289
2.08446
2.10037
1.10898
1.16482
1.19737
1.20737
1
1.00002
1.00002
1.00009
1
1
1
1
1
1
1
1
1
1
1
1
1
1
1
1
1
1
1
1
1
1
1
1
1
1
1
1
1
1
1
1
1
1
1
1
1
1
1
1
1
1
1
1
1
1
1
1
1
1
1
1
1
1
1
1
1
1
1
1
1
1
1
1
1
1
1
1
1
1
1
1
1
1
1
1
1
1
1
1
1
1
1
1
1
1
1
1
1
1
1
1
1
1
1
1
1
1
1
1
1
1
1
1
1
1
1
1
1
1
1
1
1
1
1
1
1.08744
16.0424
1.03753
1.00057
1.00003
1.00003
1.00055
1.00064
1.00017
1.00009
1.00002
1
1
1
1
1
1
1
1
676.67
397.378
1.0872
28.2672
1.00003
1.00003
1.00003
1.0008
1.0038
1.00202
1.00067
1.00001
1.00001
1
1
1
1
1
1
999.288
986.997
502.574
713.776
528.638
30.4984
16.7821
1.00085
1.00093
1.00188
1.00537
1.00099
1.0003
1.00009
1.00001
1
1
1
1
999.688
999.523
997.52
998.09
997.456
827.119
835.1
759.502
287.983
15.1085
1.00708
1.0245
1.00404
1.00313
1.00027
1.00001
1
1
1
999.541
999.528
999.507
998.979
998.461
998.235
997.239
996.756
961.779
899.527
699.329
132.871
4.57567
1.05929
1.00547
1.0005
1.00001
1
1
594.05
757.188
842.368
911.801
998.238
997.403
996.825
996.805
996.744
995.89
993.803
945.352
521.511
30.6432
1.08759
1.00399
1.00054
1
1
16.5505
58.9351
112.327
175.392
263.47
371.729
452.524
538.253
747.363
993.803
990.836
989.394
988.589
631.344
56.573
1.09849
1.00306
1.00031
1
1.12983
1.19205
1.29117
1.54045
1.56255
2.68007
4.16447
9.60032
51.4912
153.768
370.924
856.695
982.13
972.489
576.193
44.2903
1.07594
1.00595
1.00008
1.08788
1.11438
1.16178
1.2517
1.35805
2.39945
3.40273
2.37809
1.0844
1.38841
1.51642
108.152
639.067
963.913
929.53
448.625
15.5346
1.19544
1.00026
1.08653
1.38534
2.33777
2.34467
2.33923
2.01688
1.29432
1.08841
1.01199
1.01084
1.0728
1.20347
46.3429
613.767
917.467
809.773
211.458
1.45172
1.02128
2.10894
2.10549
1.58534
1.16278
1.0919
1.01213
1.00026
1.0001
1.00014
1.00058
1.00238
1.01388
1.08614
106.846
755.873
799.359
514.021
26.8391
1.17587
1.20289
1.13214
1.01035
1.00041
1.00012
1.00005
1
1.00001
1.00001
1.00004
1.00021
1.00114
1.00561
1.00972
414.441
785.029
673.869
105.381
2.16314
1.00002
1.0001
1.0001
1.00002
1
1
1
1
1
1.00001
1.00003
1.00014
1.00062
1.00066
99.048
745.086
716.669
169.217
6.11975
1
1
1
1
1
1
1
1
1.00119
1.00202
1.00085
1.00036
1.00041
1.00033
1.00065
589.445
699.279
222.971
11.1381
1
1
1
1
1
1
1
1
1.00255
1.01006
1.01041
1.00589
1.00034
1.00034
1.00033
419.49
682.696
240.17
16.2915
1
1
1
1
1
1
1
1
1.00082
1.01036
1.01043
1.01045
1.00268
1.00034
1.00041
287.578
664.58
261.102
20.9226
1
1
1
1
1
1
1
1
1
1.00376
1.01045
1.01045
1.00967
1.00057
1.00065
167.566
634.115
282.925
25.0226
1
1
1
1
1
1.00001
1
1
1
1.00037
1.01019
1.01045
1.01044
1.00212
1.00067
89.0462
603.796
306.068
29.4747
1
1
1
1
1
1
1
1
1
1
1.0072
1.01044
1.00814
1.00093
1.00061
52.446
572.847
325.722
34.9027
1
1
1
1
1
1.00002
1.00026
1.00012
1.00001
1
1.00352
1.00639
1.00213
1.00056
1.00057
42.0733
545.958
348.698
42.6227
1
1
1
1
1
1.00056
1.00193
1.00151
1.00011
1.0005
1.00395
1.00237
1.00055
1.00052
1.00054
32.653
506.247
381.375
51.5052
1
1
1
1
1
1.00106
1.00197
1.00197
1.00138
1.00197
1.00228
1.00094
1.00051
1.00051
1.00052
94.4576
358.742
346.105
63.875
1
1
1
1
1
1
1.00131
1.00197
1.00197
1.00154
1.00055
1.00051
1.0005
1.00051
26.2921
191.296
169.509
196.238
163.651
1
1
1
1
1
1.00016
1.00035
1.00105
1.00083
1.00065
1.0005
1.0005
1.0005
1.0005
125.293
197.592
79.0438
64.1632
72.0406
1
1
1
1
1.00023
1.00192
1.00183
1.00053
1.00051
1.0005
1.0005
1.0005
1.0005
74.4229
208.152
132.754
19.5377
20.2873
7.17429
1
1
1
1
1.00098
1.00195
1.00195
1.00103
1.00049
1.00051
1.00054
1.0005
27.5598
204.25
209.45
96.7082
11.6472
8.92148
2.4598
1
1
1
1
1
1.00133
1.00083
1.00043
1.00046
1.00049
1.00055
50.0954
202.835
210.095
209.124
74.2982
8.71586
3.4755
1.3674
1
1
1
1
1
1
1.00001
1.00002
1.00027
1.00414
102.15
209.835
210.5
209.969
191.771
31.6382
6.26775
1.38072
1.0856
1
1
1
1
1
1.00009
1.00001
1.00006
1.00393
86.8342
209.835
210.5
210.109
202.055
54.8586
9.84172
5.75133
1.12626
1.01586
1
1
1
1
1
1.00358
1.00004
1.00026
9.2705
191.811
205.554
196.616
133.026
36.4337
1.95461
2.0065
6.96412
1.11448
1.00262
1
1
1
1
1.00003
1.0039
1.00017
8.3628
72.31
92.4737
60.5373
22.2538
5.01442
1.957
1.13542
1.41908
6.83437
1.24644
1.00112
1
1
1
1
1.00001
1.00222
1.00014
32.4144
59.6576
15.2236
1.52421
1.06428
1.07972
1.04982
1.02289
1.33968
6.2545
1.24985
1.00091
1
1
1
1.00001
1.00033
1.0001
1.0001
1.14897
1.46006
1.76015
1.36454
1.01915
1.00299
1.00219
1.0089
1.4261
5.71763
1.14621
1.00088
1
1
1
1.00002
1.00033
1.00009
1.0001
2.68847
44.8891
14.9255
1.0183
1.0026
1.00046
1.00055
1.00357
1.71548
5.30726
1.02205
1.00087
1
1
1
1.00001
1.00006
1.00008
1.00011
22.1458
51.2716
23.5053
1.01075
1.0002
1.00021
1.00037
1.02105
1.97562
2.73585
1.0019
1.00087
1
1
1
1
1
1.00053
1.07131
1.00422
51.2608
14.2721
1.0002
1.00019
1.00019
1.00022
1.03733
1.59878
1.07858
1.02095
1.00097
1
1
1
1
1
1.00136
1.00286
1.00264
30.6684
62.0652
9.66884
1.00019
1.0002
1.00025
1.02391
1.09178
1.08408
1.07638
1.00158
1
1
1
1
1
1.00049
1.00305
1.00292
7.24584
82.5343
13.633
1.0224
1.0002
1.00024
1.00896
1.0185
1.04657
1.05889
1.00147
1
1
1
1
1
1
1.01429
1.00945
25.4189
83.4909
29.1394
1.06534
1.0002
1.0002
1.00123
1.00528
1.01782
1.0155
1.00056
1
1
1
1
1
1
1
1.3296
46.6598
84.0849
84.7177
7.48855
1.0002
1.0002
1.00028
1.00131
1.00541
1.00189
1.00019
1
1
1
1
1
1
1
1
1
83.6212
84.7565
5.60547
1.0002
1.00029
1.0003
1.00062
1.00195
1.00038
1.00015
1
1
1
1
1
1
1
1
1
56.4906
84.7565
64.4937
10.1445
1.00065
1.00051
1.00054
1.00054
1.00015
1.00015
)
;

boundaryField
{
    leftWall
    {
        type            calculated;
        value           nonuniform List<scalar> 
50
(
1000
1000
1000
1000
1000
1000
1000
1000
1000
1000
1000
999.994
855.212
92.6388
1
1
1
1
1
1
1
1
1
1
1
1
1
1
1
1
1
1
1
1
1
1
1
1
1
1
1
1
1
1
1
1
1
1
1
1
)
;
    }
    rightWall
    {
        type            calculated;
        value           nonuniform List<scalar> 
50
(
1
1
1
1
1
1
1
1
1
1
1
1
1
1
1
1.00008
1.00026
1.02128
1.17587
2.16314
6.11975
11.1381
16.2915
20.9226
25.0226
29.4747
34.9027
42.6227
51.5052
63.875
163.651
72.0406
7.17429
2.4598
1.3674
1.0856
1.01586
1.00262
1.00112
1.00091
1.00088
1.00087
1.00087
1.00097
1.00158
1.00147
1.00056
1.00019
1.00015
1.00015
)
;
    }
    lowerWall
    {
        type            calculated;
        value           nonuniform List<scalar> 
62
(
1000
1000
1000
1000
1000
1000
1000
1000
1000
1000
1000
1000
1000
1000
1000
1000
1000
1000
1000
990.405
838.471
838.318
895.736
895.736
998.626
998.608
996.764
996.822
996.938
996.942
996.949
995.539
995.593
791.294
70.9805
1
1
1.00001
1.0011
1.12229
2.30994
2.38763
1.08196
1
1
1
1
1
1
1
1
1
1
1
1
1
1
1
1
1
1
1
)
;
    }
    atmosphere
    {
        type            calculated;
        value           nonuniform List<scalar> 
46
(
1
1
1
1
1
1
1
1
1
1
1
1
1
1
1
1
1
1
1
1
1
1
1
1
1
1
1
1
1
1
1
1
1
1
1
1
56.4906
84.7565
64.4937
10.1445
1.00065
1.00051
1.00054
1.00054
1.00015
1.00015
)
;
    }
    defaultFaces
    {
        type            empty;
    }
}


// ************************************************************************* //
