/*--------------------------------*- C++ -*----------------------------------*\
  =========                 |
  \\      /  F ield         | OpenFOAM: The Open Source CFD Toolbox
   \\    /   O peration     | Website:  https://openfoam.org
    \\  /    A nd           | Version:  13
     \\/     M anipulation  |
\*---------------------------------------------------------------------------*/
FoamFile
{
    format      ascii;
    class       volVectorField;
    location    "0.35";
    object      U;
}
// * * * * * * * * * * * * * * * * * * * * * * * * * * * * * * * * * * * * * //

dimensions      [0 1 -1 0 0 0 0];

internalField   nonuniform List<vector> 
2268
(
(-0.028059 0.00609203 0)
(-0.0236274 -0.00628823 0)
(0.0280393 -0.0147107 0)
(0.101138 -0.0178996 0)
(0.176116 -0.0170314 0)
(0.243939 -0.0143716 0)
(0.299535 -0.0114752 0)
(0.343114 -0.00904922 0)
(0.377484 -0.00724228 0)
(0.405451 -0.00592644 0)
(0.428703 -0.00486268 0)
(0.447705 -0.00380895 0)
(0.461957 -0.00247858 0)
(0.469714 -0.000549572 0)
(0.468384 0.00346101 0)
(0.449048 0.0108631 0)
(0.402223 0.0220916 0)
(0.315845 0.0363243 0)
(0.178495 0.0469596 0)
(0.00514144 0.0383328 0)
(-0.157952 0.00742398 0)
(-0.2473 -0.00258864 0)
(-0.100238 -0.06231 0)
(-0.0294832 0.0180637 0)
(-0.0217233 -0.0196038 0)
(0.0306504 -0.0446241 0)
(0.104071 -0.0539401 0)
(0.178806 -0.0512816 0)
(0.245939 -0.0433459 0)
(0.300929 -0.0347416 0)
(0.344299 -0.0275581 0)
(0.378899 -0.022221 0)
(0.407438 -0.0183318 0)
(0.431481 -0.0151778 0)
(0.451442 -0.0120206 0)
(0.466758 -0.00815991 0)
(0.476616 -0.00283027 0)
(0.47966 0.00520615 0)
(0.479045 0.018117 0)
(0.474649 0.0381079 0)
(0.458166 0.0674136 0)
(0.404272 0.102783 0)
(0.265615 0.124275 0)
(0.0639785 0.0981369 0)
(-0.170908 0.00536058 0)
(0.0035342 -0.139926 0)
(-0.0278277 0.0294686 0)
(-0.0183089 -0.033371 0)
(0.0349984 -0.0747645 0)
(0.108192 -0.0896071 0)
(0.181696 -0.0848447 0)
(0.246914 -0.0715833 0)
(0.300193 -0.0574165 0)
(0.342594 -0.0457266 0)
(0.377055 -0.0371233 0)
(0.406115 -0.0308683 0)
(0.43111 -0.0257546 0)
(0.45225 -0.0205662 0)
(0.468931 -0.0142845 0)
(0.479887 -0.00602407 0)
(0.483643 0.00464395 0)
(0.478824 0.0190804 0)
(0.46598 0.0405171 0)
(0.450449 0.0745656 0)
(0.442246 0.126247 0)
(0.407374 0.180303 0)
(0.303176 0.18892 0)
(0.0951084 0.0653846 0)
(0.0862831 -0.136216 0)
(-0.0262913 0.0394794 0)
(-0.0131673 -0.04787 0)
(0.0411365 -0.105228 0)
(0.113663 -0.124779 0)
(0.185206 -0.117459 0)
(0.247768 -0.098864 0)
(0.298849 -0.0794375 0)
(0.34016 -0.063672 0)
(0.374685 -0.0522109 0)
(0.404688 -0.0438915 0)
(0.431162 -0.0369972 0)
(0.45404 -0.0298839 0)
(0.472546 -0.0212167 0)
(0.485473 -0.00998319 0)
(0.491407 0.00489538 0)
(0.488944 0.024312 0)
(0.477132 0.0497369 0)
(0.456225 0.0836441 0)
(0.438236 0.132005 0)
(0.436414 0.196041 0)
(0.421013 0.236726 0)
(0.28256 0.141474 0)
(0.168155 -0.0601794 0)
(-0.0242285 0.0477048 0)
(-0.00650264 -0.063414 0)
(0.0487179 -0.1358 0)
(0.12003 -0.159048 0)
(0.188854 -0.148658 0)
(0.248139 -0.124836 0)
(0.29673 -0.100654 0)
(0.337002 -0.0814262 0)
(0.37189 -0.0676298 0)
(0.403257 -0.0575977 0)
(0.431651 -0.0491101 0)
(0.456677 -0.0401426 0)
(0.477387 -0.0291198 0)
(0.49255 -0.0148665 0)
(0.500904 0.00355726 0)
(0.501315 0.0271625 0)
(0.49309 0.0570646 0)
(0.475779 0.0940757 0)
(0.451319 0.138578 0)
(0.433652 0.195163 0)
(0.443876 0.251543 0)
(0.359828 0.209403 0)
(0.214705 0.052637 0)
(-0.0213772 0.0536312 0)
(0.0015091 -0.0802098 0)
(0.0575486 -0.16632 0)
(0.127134 -0.192108 0)
(0.192578 -0.178122 0)
(0.248153 -0.149291 0)
(0.294188 -0.121037 0)
(0.333659 -0.0991236 0)
(0.369301 -0.0836131 0)
(0.402441 -0.0722532 0)
(0.433116 -0.0623527 0)
(0.460576 -0.0515872 0)
(0.483706 -0.0382214 0)
(0.501271 -0.0210264 0)
(0.512114 0.000936135 0)
(0.515288 0.0284708 0)
(0.510252 0.0624002 0)
(0.496739 0.103289 0)
(0.475395 0.149635 0)
(0.443283 0.199903 0)
(0.435503 0.25976 0)
(0.377233 0.269317 0)
(0.236622 0.192254 0)
(-0.0176913 0.0567212 0)
(0.0105459 -0.0983278 0)
(0.0672926 -0.19668 0)
(0.13471 -0.223885 0)
(0.196373 -0.205841 0)
(0.248133 -0.172258 0)
(0.29185 -0.140623 0)
(0.330976 -0.116784 0)
(0.36787 -0.100145 0)
(0.403213 -0.0877934 0)
(0.436492 -0.0766073 0)
(0.466625 -0.0640466 0)
(0.49236 -0.0483033 0)
(0.512458 -0.0281761 0)
(0.525803 -0.00288216 0)
(0.531559 0.0282515 0)
(0.52932 0.0660142 0)
(0.51844 0.110639 0)
(0.500714 0.161565 0)
(0.467735 0.213619 0)
(0.436949 0.27581 0)
(0.380074 0.322808 0)
(0.265442 0.324073 0)
(-0.0133624 0.056875 0)
(0.0200427 -0.117261 0)
(0.0773116 -0.226983 0)
(0.141995 -0.254652 0)
(0.199752 -0.232204 0)
(0.248051 -0.194221 0)
(0.290057 -0.159917 0)
(0.329469 -0.134841 0)
(0.368111 -0.117557 0)
(0.405956 -0.104479 0)
(0.441983 -0.0921085 0)
(0.47488 -0.0777601 0)
(0.503367 -0.0595824 0)
(0.526239 -0.0363461 0)
(0.542408 -0.00732611 0)
(0.551018 0.0274048 0)
(0.551524 0.0687433 0)
(0.543136 0.116572 0)
(0.526999 0.171356 0)
(0.49903 0.229045 0)
(0.456617 0.297692 0)
(0.395299 0.376546 0)
(0.256118 0.481018 0)
(0.0509148 -0.00484409 0)
(0.0683317 0.0154478 0)
(-0.0823009 0.0313442 0)
(-0.207822 0.0136862 0)
(-0.270003 0.0205566 0)
(-0.36659 0.0151872 0)
(-0.42643 0.0114794 0)
(-0.469957 0.00809279 0)
(-0.496944 0.00411322 0)
(-0.504971 0.000765296 0)
(-0.496134 -0.00249332 0)
(-0.47386 -0.00486106 0)
(-0.439923 -0.00710261 0)
(-0.395495 -0.00970513 0)
(-0.340884 -0.0125404 0)
(-0.276834 -0.0150289 0)
(-0.204693 -0.0175109 0)
(-0.125431 -0.0196432 0)
(-0.0422506 -0.0200179 0)
(0.0723189 -0.0431481 0)
(0.114857 0.0419648 0)
(-0.0483687 0.101321 0)
(-0.190996 0.0464048 0)
(-0.264328 0.0648444 0)
(-0.371788 0.0462745 0)
(-0.427989 0.0325759 0)
(-0.465874 0.021974 0)
(-0.486477 0.0104676 0)
(-0.490325 -0.000150481 0)
(-0.478142 -0.0104195 0)
(-0.450001 -0.0189032 0)
(-0.407515 -0.0263169 0)
(-0.354295 -0.0327501 0)
(-0.294176 -0.0385041 0)
(-0.230259 -0.0431469 0)
(-0.164893 -0.0471966 0)
(-0.0986151 -0.0506158 0)
(-0.0329698 -0.0514847 0)
(0.0281343 -0.0923195 0)
(0.132664 0.0548169 0)
(-0.0474688 0.176525 0)
(-0.205969 0.0800296 0)
(-0.259146 0.111392 0)
(-0.373916 0.0780636 0)
(-0.429095 0.0533529 0)
(-0.468893 0.035427 0)
(-0.492358 0.0167923 0)
(-0.49709 -0.00158985 0)
(-0.484674 -0.0189625 0)
(-0.456841 -0.0340847 0)
(-0.415529 -0.0472143 0)
(-0.36304 -0.0576109 0)
(-0.302225 -0.0654545 0)
(-0.236377 -0.0711291 0)
(-0.168644 -0.0751397 0)
(-0.100398 -0.07845 0)
(-0.0335303 -0.0785793 0)
(-0.0438505 -0.111107 0)
(0.107504 0.0691045 0)
(-0.0822998 0.264282 0)
(-0.240488 0.108755 0)
(-0.261935 0.156969 0)
(-0.389231 0.110083 0)
(-0.440136 0.0738555 0)
(-0.478768 0.0496654 0)
(-0.50252 0.023251 0)
(-0.506866 -0.00305005 0)
(-0.49349 -0.0272144 0)
(-0.464723 -0.0484011 0)
(-0.423005 -0.0667602 0)
(-0.370568 -0.0815719 0)
(-0.30996 -0.0924008 0)
(-0.243906 -0.0999375 0)
(-0.175056 -0.104664 0)
(-0.104705 -0.108434 0)
(-0.0350526 -0.107997 0)
(-0.109977 -0.0860892 0)
(0.0770333 0.0782956 0)
(-0.160746 0.364228 0)
(-0.304264 0.12933 0)
(-0.262176 0.199626 0)
(-0.410389 0.143488 0)
(-0.45576 0.0931249 0)
(-0.491853 0.0640737 0)
(-0.516357 0.0293924 0)
(-0.519924 -0.00472418 0)
(-0.505085 -0.0359765 0)
(-0.474758 -0.0634388 0)
(-0.431463 -0.0870606 0)
(-0.377434 -0.105931 0)
(-0.315581 -0.119652 0)
(-0.248612 -0.129076 0)
(-0.178818 -0.134786 0)
(-0.107263 -0.13929 0)
(-0.0359664 -0.138519 0)
(-0.175432 -0.0666454 0)
(0.0169351 0.0679152 0)
(-0.243727 0.456211 0)
(-0.411234 0.0758015 0)
(-0.2623 0.233675 0)
(-0.436971 0.179268 0)
(-0.476467 0.110575 0)
(-0.507861 0.0781195 0)
(-0.533735 0.0361585 0)
(-0.536483 -0.00688883 0)
(-0.519951 -0.0457624 0)
(-0.487483 -0.0792822 0)
(-0.441947 -0.108201 0)
(-0.38556 -0.131059 0)
(-0.321524 -0.147664 0)
(-0.252751 -0.158656 0)
(-0.181577 -0.165396 0)
(-0.108913 -0.170739 0)
(-0.0365169 -0.169629 0)
(-0.35029 -0.138191 0)
(-0.364979 0.0456912 0)
(-0.484377 0.616055 0)
(-0.552125 0.110381 0)
(-0.222517 0.254213 0)
(-0.46146 0.225728 0)
(-0.499781 0.122479 0)
(-0.522292 0.091808 0)
(-0.551552 0.0450114 0)
(-0.554954 -0.0117595 0)
(-0.536937 -0.0577264 0)
(-0.502741 -0.0963318 0)
(-0.454812 -0.130431 0)
(-0.395455 -0.157326 0)
(-0.32857 -0.17668 0)
(-0.25742 -0.188991 0)
(-0.184484 -0.196519 0)
(-0.110445 -0.202352 0)
(-0.0369594 -0.200952 0)
(-0.622932 0.527587 0)
(-0.814562 0.0877669 0)
(-0.718247 0.709179 0)
(-0.673287 -0.149271 0)
(-0.211359 0.236014 0)
(-0.491723 0.283735 0)
(-0.536591 0.129106 0)
(-0.534473 0.089418 0)
(-0.570927 0.0441031 0)
(-0.573521 -0.0154691 0)
(-0.551411 -0.0665287 0)
(-0.517555 -0.112544 0)
(-0.469513 -0.153666 0)
(-0.407198 -0.184828 0)
(-0.336695 -0.207043 0)
(-0.262627 -0.220758 0)
(-0.187601 -0.228903 0)
(-0.11206 -0.235137 0)
(-0.0374668 -0.233594 0)
(-0.00605854 0.0496874 0)
(0.0363801 -0.15045 0)
(0.09379 -0.273487 0)
(0.151917 -0.299192 0)
(0.202911 -0.26969 0)
(0.246749 -0.226523 0)
(0.287407 -0.190267 0)
(0.328135 -0.164986 0)
(0.369631 -0.147658 0)
(0.410866 -0.133832 0)
(0.450307 -0.119758 0)
(0.486579 -0.102826 0)
(0.518646 -0.0813483 0)
(0.545657 -0.0540159 0)
(0.56655 -0.0193056 0)
(0.580772 0.0244506 0)
(0.587356 0.0744687 0)
(0.585208 0.13088 0)
(0.573166 0.193548 0)
(0.55492 0.260923 0)
(0.518491 0.341858 0)
(0.500537 0.43122 0)
(0.445656 0.638833 0)
(0.0056827 0.0263353 0)
(0.0649252 -0.201519 0)
(0.122635 -0.331686 0)
(0.166488 -0.350611 0)
(0.205415 -0.312651 0)
(0.243744 -0.265717 0)
(0.284075 -0.229916 0)
(0.327409 -0.20623 0)
(0.372537 -0.18942 0)
(0.417371 -0.1743 0)
(0.460046 -0.157264 0)
(0.499273 -0.136212 0)
(0.534434 -0.110151 0)
(0.565662 -0.0788181 0)
(0.59353 -0.0422563 0)
(0.61501 -9.65572e-05 0)
(0.629196 0.0524243 0)
(0.637368 0.114084 0)
(0.636666 0.183504 0)
(0.632474 0.258754 0)
(0.618495 0.345884 0)
(0.619548 0.434663 0)
(0.620515 0.595993 0)
(0.0202186 -0.02369 0)
(0.115578 -0.262635 0)
(0.178009 -0.373666 0)
(0.193573 -0.382478 0)
(0.21156 -0.344591 0)
(0.244692 -0.30292 0)
(0.288142 -0.272708 0)
(0.336895 -0.252537 0)
(0.387406 -0.236663 0)
(0.437208 -0.220228 0)
(0.484596 -0.200098 0)
(0.528329 -0.174471 0)
(0.567311 -0.142189 0)
(0.600129 -0.10233 0)
(0.625539 -0.053985 0)
(0.647104 0.00356294 0)
(0.665148 0.0729046 0)
(0.676558 0.148501 0)
(0.682006 0.226624 0)
(0.685214 0.303204 0)
(0.689606 0.378557 0)
(0.698489 0.450875 0)
(0.723458 0.53537 0)
(0.0434171 -0.120492 0)
(0.199067 -0.348524 0)
(0.267585 -0.404588 0)
(0.238801 -0.395734 0)
(0.226567 -0.374555 0)
(0.255728 -0.353742 0)
(0.305003 -0.335763 0)
(0.360183 -0.320848 0)
(0.416248 -0.307082 0)
(0.471655 -0.291715 0)
(0.526217 -0.272492 0)
(0.580335 -0.248016 0)
(0.633633 -0.216901 0)
(0.687028 -0.177795 0)
(0.738404 -0.129907 0)
(0.785018 -0.0729763 0)
(0.816584 -0.0137946 0)
(0.823733 0.0516992 0)
(0.81413 0.1254 0)
(0.798232 0.206874 0)
(0.783757 0.297101 0)
(0.774879 0.392781 0)
(0.787158 0.479693 0)
(0.0820078 -0.25704 0)
(0.257949 -0.493924 0)
(0.33765 -0.434944 0)
(0.266725 -0.362718 0)
(0.220041 -0.371352 0)
(0.238207 -0.38952 0)
(0.276496 -0.387326 0)
(0.316188 -0.373567 0)
(0.353489 -0.355968 0)
(0.386866 -0.335449 0)
(0.415488 -0.310467 0)
(0.433926 -0.277108 0)
(0.390095 -0.233964 0)
(0.455104 -0.200704 0)
(0.532738 -0.151264 0)
(0.579696 -0.088807 0)
(0.852072 0.0400396 0)
(0.950336 0.139865 0)
(0.969274 0.226426 0)
(0.95643 0.294459 0)
(0.933363 0.350533 0)
(0.909642 0.400386 0)
(0.894989 0.442247 0)
(0.0802502 -0.472319 0)
(0.185405 -0.663782 0)
(0.245379 -0.399796 0)
(0.150238 -0.261555 0)
(0.0982467 -0.309618 0)
(0.0833098 -0.367766 0)
(0.0668674 -0.371942 0)
(0.0511363 -0.353904 0)
(0.0383248 -0.331109 0)
(0.0331907 -0.306415 0)
(0.0485827 -0.275301 0)
(0.0997667 -0.222728 0)
(0.1751 -0.211336 0)
(0.234179 -0.206916 0)
(0.262521 -0.20809 0)
(0.287609 -0.245627 0)
(0.373725 -0.258373 0)
(0.595918 -0.00690756 0)
(0.858062 0.232462 0)
(0.994431 0.352877 0)
(1.00173 0.421319 0)
(0.957848 0.46188 0)
(0.948496 0.489369 0)
(-0.0502732 -0.620486 0)
(-0.135933 -0.371458 0)
(-0.115914 -0.263231 0)
(-0.0413589 -0.314648 0)
(0.0100822 -0.339327 0)
(0.0194997 -0.357205 0)
(0.0103714 -0.357679 0)
(0.00101377 -0.347642 0)
(-0.00142741 -0.340183 0)
(0.00902196 -0.343538 0)
(0.0379703 -0.355723 0)
(0.0858693 -0.361791 0)
(0.141687 -0.34981 0)
(0.186601 -0.300913 0)
(0.196139 -0.252806 0)
(0.221948 -0.29183 0)
(0.368258 -0.403157 0)
(0.572697 -0.388627 0)
(0.827697 -0.202379 0)
(1.10514 0.13837 0)
(1.25385 0.434874 0)
(1.22548 0.579981 0)
(1.11396 0.546819 0)
(-0.0863977 -0.379431 0)
(-0.126139 -0.514131 0)
(-0.0895075 -0.480667 0)
(-0.0324297 -0.39541 0)
(-0.0107307 -0.369755 0)
(0.00540242 -0.367745 0)
(0.0084302 -0.36454 0)
(0.00979475 -0.358135 0)
(0.0146106 -0.358746 0)
(0.0245362 -0.37228 0)
(0.041007 -0.392472 0)
(0.0636709 -0.40239 0)
(0.0860356 -0.38186 0)
(0.117204 -0.303748 0)
(0.121001 -0.253592 0)
(0.200224 -0.430956 0)
(0.331408 -0.587505 0)
(0.439857 -0.566232 0)
(0.593766 -0.420013 0)
(0.81856 -0.141911 0)
(0.996772 0.23697 0)
(1.14157 0.55125 0)
(1.15961 0.633603 0)
(-0.0422867 -0.327534 0)
(-0.0353379 -0.533583 0)
(-0.0312547 -0.457755 0)
(-0.0176871 -0.412006 0)
(-0.00317919 -0.387562 0)
(0.011263 -0.378978 0)
(0.0207216 -0.369992 0)
(0.0277029 -0.360714 0)
(0.033326 -0.359911 0)
(0.0366943 -0.372699 0)
(0.0385512 -0.39414 0)
(0.0397044 -0.408489 0)
(0.0409375 -0.394257 0)
(0.0713767 -0.323061 0)
(0.112574 -0.305219 0)
(0.186317 -0.516052 0)
(0.162385 -0.629511 0)
(0.156791 -0.603017 0)
(0.195127 -0.468182 0)
(0.224819 -0.240203 0)
(0.407884 0.0761736 0)
(0.634951 0.365533 0)
(0.806457 0.536273 0)
(-0.00542253 -0.303904 0)
(-0.0105668 -0.512637 0)
(-0.0146873 -0.463913 0)
(-0.00411334 -0.419177 0)
(0.00743415 -0.400018 0)
(0.0205844 -0.390483 0)
(0.0323646 -0.379359 0)
(0.0430965 -0.36756 0)
(0.051552 -0.363279 0)
(0.0554603 -0.372176 0)
(0.0540764 -0.390651 0)
(0.0480217 -0.406213 0)
(0.0436561 -0.402052 0)
(0.0666549 -0.362836 0)
(0.125447 -0.358141 0)
(0.12804 -0.448393 0)
(0.0850272 -0.567577 0)
(0.0352556 -0.591121 0)
(0.00950335 -0.476727 0)
(0.00960765 -0.284028 0)
(-0.0103166 -0.0413827 0)
(0.13798 0.243681 0)
(0.293361 0.441784 0)
(0.00579546 -0.302717 0)
(0.00260288 -0.514126 0)
(4.82377e-05 -0.468603 0)
(0.00752083 -0.42929 0)
(0.0186959 -0.412689 0)
(0.0310972 -0.40298 0)
(0.0442852 -0.391704 0)
(0.0585095 -0.379191 0)
(0.0722279 -0.371606 0)
(0.0824063 -0.374427 0)
(0.0865165 -0.386516 0)
(0.0848548 -0.400311 0)
(0.0841575 -0.405243 0)
(0.0977312 -0.396341 0)
(0.132977 -0.393743 0)
(0.152937 -0.444983 0)
(0.11427 -0.509428 0)
(0.0272011 -0.52939 0)
(-0.0208942 -0.482969 0)
(0.0389127 -0.332274 0)
(0.0640374 -0.136757 0)
(0.129507 0.0163975 0)
(0.332382 0.10375 0)
(0.00910373 -0.311056 0)
(0.011223 -0.512637 0)
(0.0105136 -0.471823 0)
(0.0177784 -0.437568 0)
(0.0286241 -0.424318 0)
(0.0409857 -0.415979 0)
(0.0550274 -0.406234 0)
(0.0713411 -0.395079 0)
(0.0891306 -0.386494 0)
(0.105568 -0.385052 0)
(0.117506 -0.391637 0)
(0.124391 -0.402335 0)
(0.129253 -0.410912 0)
(0.137377 -0.415208 0)
(0.152192 -0.422223 0)
(0.159661 -0.441523 0)
(0.135843 -0.463445 0)
(0.0795695 -0.463788 0)
(-0.00866568 -0.430979 0)
(-0.0234052 -0.339339 0)
(0.00802094 -0.156051 0)
(0.0648527 0.0156938 0)
(0.143411 0.109884 0)
(0.0100072 -0.322512 0)
(0.0157153 -0.515181 0)
(0.017772 -0.476547 0)
(0.0257318 -0.446546 0)
(0.0367719 -0.435946 0)
(0.0492611 -0.429297 0)
(0.0634206 -0.421705 0)
(0.0799603 -0.413118 0)
(0.0987953 -0.405686 0)
(0.117992 -0.402477 0)
(0.134713 -0.405004 0)
(0.14726 -0.411489 0)
(0.1558 -0.418201 0)
(0.162088 -0.42302 0)
(0.165643 -0.426593 0)
(0.162839 -0.430746 0)
(0.145949 -0.430099 0)
(0.113927 -0.413252 0)
(0.0738271 -0.37892 0)
(0.0267828 -0.313267 0)
(0.0119174 -0.201906 0)
(0.0533191 -0.10201 0)
(0.125636 -0.0330456 0)
(0.00980299 -0.336039 0)
(0.0180355 -0.520429 0)
(0.0228721 -0.482958 0)
(0.0317947 -0.456333 0)
(0.0432643 -0.447873 0)
(0.0559656 -0.442699 0)
(0.0699693 -0.436908 0)
(0.0857194 -0.430637 0)
(0.103361 -0.424942 0)
(0.121896 -0.421452 0)
(0.139251 -0.421271 0)
(0.153395 -0.423656 0)
(0.163496 -0.426408 0)
(0.169653 -0.427593 0)
(0.172 -0.426593 0)
(0.169479 -0.42294 0)
(0.161015 -0.413204 0)
(0.146988 -0.392104 0)
(0.131601 -0.355143 0)
(0.122569 -0.299369 0)
(0.131282 -0.222966 0)
(0.166067 -0.143088 0)
(0.221117 -0.0729605 0)
(0.00928699 -0.350333 0)
(0.0193313 -0.527803 0)
(0.0265063 -0.491003 0)
(0.0364647 -0.466967 0)
(0.0484292 -0.460151 0)
(0.0613873 -0.456131 0)
(0.0753008 -0.45155 0)
(0.0902898 -0.446735 0)
(0.106385 -0.442304 0)
(0.123116 -0.438923 0)
(0.13924 -0.437032 0)
(0.153262 -0.436281 0)
(0.164269 -0.435476 0)
(0.172187 -0.433212 0)
(0.177232 -0.42847 0)
(0.179209 -0.420257 0)
(0.178054 -0.406344 0)
(0.175151 -0.383276 0)
(0.173791 -0.348611 0)
(0.178858 -0.301683 0)
(0.196285 -0.244319 0)
(0.229359 -0.184754 0)
(0.276182 -0.130874 0)
(0.00885412 -0.364855 0)
(0.0201698 -0.537056 0)
(0.0291627 -0.500465 0)
(0.0400655 -0.478394 0)
(0.0525309 -0.472843 0)
(0.0657946 -0.469714 0)
(0.0797851 -0.465939 0)
(0.0944743 -0.46192 0)
(0.109738 -0.458117 0)
(0.125278 -0.454751 0)
(0.140467 -0.451865 0)
(0.154489 -0.449197 0)
(0.166733 -0.446073 0)
(0.17707 -0.441524 0)
(0.185654 -0.434542 0)
(0.192707 -0.423978 0)
(0.198651 -0.40837 0)
(0.204683 -0.38598 0)
(0.213276 -0.355486 0)
(0.227621 -0.316958 0)
(0.250901 -0.272376 0)
(0.284668 -0.225603 0)
(0.328527 -0.180227 0)
(0.00859517 -0.379555 0)
(0.0208078 -0.547743 0)
(0.0311407 -0.511061 0)
(0.0428658 -0.490523 0)
(0.0558161 -0.485967 0)
(0.0694093 -0.48354 0)
(0.0835856 -0.48039 0)
(0.0983112 -0.476888 0)
(0.113429 -0.4734 0)
(0.128704 -0.470009 0)
(0.143819 -0.466627 0)
(0.158387 -0.462985 0)
(0.172085 -0.458598 0)
(0.184798 -0.452766 0)
(0.196675 -0.444669 0)
(0.208069 -0.433388 0)
(0.219609 -0.417874 0)
(0.232346 -0.397092 0)
(0.247933 -0.370459 0)
(0.268345 -0.338281 0)
(0.295536 -0.30204 0)
(0.330368 -0.263963 0)
(0.372832 -0.225807 0)
(0.00850019 -0.394431 0)
(0.0213646 -0.559489 0)
(0.0326417 -0.522545 0)
(0.0450565 -0.503269 0)
(0.0584584 -0.499513 0)
(0.0723851 -0.497646 0)
(0.0867944 -0.49503 0)
(0.10169 -0.491986 0)
(0.116977 -0.48879 0)
(0.132488 -0.485473 0)
(0.148036 -0.481916 0)
(0.163434 -0.477866 0)
(0.178544 -0.472927 0)
(0.193355 -0.466575 0)
(0.20804 -0.458189 0)
(0.222973 -0.447063 0)
(0.238766 -0.432472 0)
(0.256307 -0.413807 0)
(0.276824 -0.390842 0)
(0.301602 -0.363965 0)
(0.331908 -0.334291 0)
(0.368223 -0.303147 0)
(0.410634 -0.271124 0)
(0.00853704 -0.409541 0)
(0.0218838 -0.571984 0)
(0.0337924 -0.534705 0)
(0.046769 -0.516538 0)
(0.0605753 -0.513451 0)
(0.0748264 -0.512045 0)
(0.0894947 -0.509899 0)
(0.104617 -0.507308 0)
(0.120165 -0.504475 0)
(0.136056 -0.501386 0)
(0.152189 -0.497916 0)
(0.168485 -0.493851 0)
(0.184923 -0.48888 0)
(0.201575 -0.482605 0)
(0.21865 -0.474557 0)
(0.236518 -0.464228 0)
(0.25574 -0.451132 0)
(0.277047 -0.434914 0)
(0.301361 -0.415509 0)
(0.329528 -0.39324 0)
(0.362428 -0.368895 0)
(0.400303 -0.343258 0)
(0.443283 -0.316298 0)
(0.00866591 -0.424942 0)
(0.0223665 -0.584969 0)
(0.034666 -0.547366 0)
(0.0480909 -0.530239 0)
(0.0622432 -0.527743 0)
(0.0767929 -0.526738 0)
(0.0917298 -0.525028 0)
(0.107115 -0.522895 0)
(0.122967 -0.520498 0)
(0.13927 -0.517793 0)
(0.156006 -0.514658 0)
(0.173178 -0.510914 0)
(0.190833 -0.506323 0)
(0.209096 -0.500587 0)
(0.228198 -0.493364 0)
(0.248497 -0.484296 0)
(0.270484 -0.473053 0)
(0.294747 -0.459415 0)
(0.321987 -0.443367 0)
(0.352786 -0.425167 0)
(0.387821 -0.405401 0)
(0.427198 -0.3845 0)
(0.471115 -0.362049 0)
(0.00885508 -0.440665 0)
(0.0227969 -0.598244 0)
(0.0352986 -0.560386 0)
(0.0490724 -0.544289 0)
(0.0635043 -0.542336 0)
(0.0783095 -0.541709 0)
(0.0934996 -0.540428 0)
(0.109156 -0.538777 0)
(0.125329 -0.536886 0)
(0.142051 -0.534701 0)
(0.159364 -0.532109 0)
(0.177329 -0.528962 0)
(0.196044 -0.525076 0)
(0.215665 -0.520232 0)
(0.236433 -0.514187 0)
(0.258683 -0.506691 0)
(0.282843 -0.497521 0)
(0.309395 -0.486532 0)
(0.338901 -0.473726 0)
(0.371793 -0.459298 0)
(0.408646 -0.443688 0)
(0.449474 -0.427064 0)
(0.49458 -0.408772 0)
(0.00907588 -0.456717 0)
(0.0231515 -0.611639 0)
(0.0357046 -0.573643 0)
(0.0497387 -0.558607 0)
(0.0643789 -0.557172 0)
(0.0793816 -0.556913 0)
(0.0947834 -0.556077 0)
(0.110682 -0.554947 0)
(0.12715 -0.553634 0)
(0.144258 -0.552083 0)
(0.162082 -0.550197 0)
(0.180723 -0.547857 0)
(0.200312 -0.544921 0)
(0.221027 -0.54123 0)
(0.243114 -0.536617 0)
(0.266885 -0.530913 0)
(0.292719 -0.523966 0)
(0.321028 -0.51568 0)
(0.352287 -0.50605 0)
(0.386845 -0.495226 0)
(0.425234 -0.483543 0)
(0.467407 -0.470977 0)
(0.513824 -0.456731 0)
(0.00929685 -0.473075 0)
(0.0234044 -0.625006 0)
(0.0358917 -0.58704 0)
(0.050102 -0.573109 0)
(0.0648741 -0.572179 0)
(0.0800047 -0.572291 0)
(0.0955564 -0.571922 0)
(0.111636 -0.571358 0)
(0.128338 -0.57069 0)
(0.145754 -0.569869 0)
(0.163989 -0.568817 0)
(0.183166 -0.567439 0)
(0.203433 -0.565632 0)
(0.224986 -0.563284 0)
(0.248069 -0.560283 0)
(0.272976 -0.556524 0)
(0.30005 -0.551908 0)
(0.329662 -0.546367 0)
(0.362235 -0.539892 0)
(0.398081 -0.532602 0)
(0.437718 -0.524765 0)
(0.481083 -0.516211 0)
(0.528827 -0.506081 0)
(0.0094848 -0.489687 0)
(0.0235355 -0.638228 0)
(0.0358746 -0.600494 0)
(0.0501765 -0.587712 0)
(0.0649953 -0.58728 0)
(0.0801744 -0.58777 0)
(0.0957978 -0.587894 0)
(0.111978 -0.587934 0)
(0.128825 -0.587969 0)
(0.146448 -0.587957 0)
(0.164967 -0.587837 0)
(0.184517 -0.587539 0)
(0.205262 -0.58699 0)
(0.227402 -0.586116 0)
(0.251179 -0.584853 0)
(0.276871 -0.583142 0)
(0.304796 -0.580929 0)
(0.3353 -0.578169 0)
(0.368782 -0.574856 0)
(0.405548 -0.571094 0)
(0.446119 -0.56711 0)
(0.49045 -0.562644 0)
(0.539418 -0.556841 0)
(0.00961144 -0.506469 0)
(0.0235406 -0.65122 0)
(0.0356814 -0.613931 0)
(0.0499852 -0.602331 0)
(0.064757 -0.602385 0)
(0.0798961 -0.603262 0)
(0.0954984 -0.603903 0)
(0.111683 -0.604582 0)
(0.128568 -0.605365 0)
(0.146275 -0.60622 0)
(0.164931 -0.607103 0)
(0.184681 -0.607967 0)
(0.205694 -0.608763 0)
(0.228174 -0.609452 0)
(0.252357 -0.610007 0)
(0.278506 -0.61041 0)
(0.30692 -0.610643 0)
(0.337931 -0.61069 0)
(0.371929 -0.610554 0)
(0.40923 -0.610346 0)
(0.450369 -0.610281 0)
(0.495349 -0.610068 0)
(0.545296 -0.608897 0)
(0.00966383 -0.523317 0)
(0.0234366 -0.663941 0)
(0.0353489 -0.627283 0)
(0.0495578 -0.616868 0)
(0.0641829 -0.617395 0)
(0.0791869 -0.61867 0)
(0.0946654 -0.619849 0)
(0.110745 -0.621191 0)
(0.127549 -0.622753 0)
(0.145202 -0.624515 0)
(0.163837 -0.626448 0)
(0.183601 -0.628523 0)
(0.204669 -0.630717 0)
(0.227243 -0.633018 0)
(0.25155 -0.635432 0)
(0.27784 -0.637976 0)
(0.306393 -0.640668 0)
(0.337538 -0.643526 0)
(0.371652 -0.646576 0)
(0.409069 -0.649946 0)
(0.450334 -0.653875 0)
(0.495531 -0.658114 0)
(0.546019 -0.661913 0)
(0.00965517 -0.540135 0)
(0.0232558 -0.676377 0)
(0.0349057 -0.640478 0)
(0.0489187 -0.631221 0)
(0.063296 -0.632207 0)
(0.0780672 -0.633892 0)
(0.0933157 -0.635621 0)
(0.109177 -0.637639 0)
(0.125772 -0.639999 0)
(0.143229 -0.642689 0)
(0.161678 -0.645695 0)
(0.181269 -0.649006 0)
(0.202177 -0.65262 0)
(0.224599 -0.656551 0)
(0.248753 -0.660831 0)
(0.274872 -0.665508 0)
(0.303225 -0.670638 0)
(0.334127 -0.676275 0)
(0.367941 -0.682481 0)
(0.405015 -0.689419 0)
(0.44589 -0.697377 0)
(0.490737 -0.706223 0)
(0.541097 -0.715281 0)
(0.00962557 -0.556866 0)
(0.0230304 -0.688528 0)
(0.0343526 -0.653441 0)
(0.0480737 -0.645294 0)
(0.0621025 -0.646727 0)
(0.0765463 -0.64883 0)
(0.0914627 -0.651114 0)
(0.106995 -0.653811 0)
(0.12326 -0.65697 0)
(0.140379 -0.66059 0)
(0.158484 -0.664672 0)
(0.177722 -0.66922 0)
(0.198264 -0.674251 0)
(0.220301 -0.679799 0)
(0.244036 -0.685921 0)
(0.269689 -0.692692 0)
(0.29751 -0.7002 0)
(0.327799 -0.708539 0)
(0.36089 -0.717819 0)
(0.397133 -0.728244 0)
(0.437046 -0.740178 0)
(0.480864 -0.75367 0)
(0.530211 -0.76813 0)
(0.00962466 -0.573492 0)
(0.022773 -0.700357 0)
(0.0336534 -0.666079 0)
(0.0470019 -0.658998 0)
(0.0605851 -0.660868 0)
(0.0746139 -0.663394 0)
(0.0891054 -0.66623 0)
(0.104209 -0.669598 0)
(0.120032 -0.673545 0)
(0.136692 -0.678082 0)
(0.154314 -0.683221 0)
(0.17304 -0.688983 0)
(0.193038 -0.695401 0)
(0.214483 -0.702527 0)
(0.237566 -0.710437 0)
(0.262486 -0.719229 0)
(0.289478 -0.729017 0)
(0.318812 -0.739935 0)
(0.350784 -0.752142 0)
(0.385728 -0.765888 0)
(0.424109 -0.781625 0)
(0.466186 -0.799621 0)
(0.513525 -0.819398 0)
(0.00968655 -0.590001 0)
(0.0224669 -0.711747 0)
(0.0327445 -0.678264 0)
(0.0456595 -0.672231 0)
(0.0587054 -0.674532 0)
(0.0722384 -0.677483 0)
(0.0862208 -0.680865 0)
(0.100807 -0.68489 0)
(0.116096 -0.689606 0)
(0.132196 -0.695035 0)
(0.149224 -0.701199 0)
(0.167317 -0.708132 0)
(0.186629 -0.715882 0)
(0.207323 -0.724518 0)
(0.229569 -0.734132 0)
(0.253549 -0.744838 0)
(0.279475 -0.756772 0)
(0.307581 -0.770102 0)
(0.338114 -0.785027 0)
(0.371375 -0.801845 0)
(0.407746 -0.821078 0)
(0.447459 -0.843229 0)
(0.491866 -0.867962 0)
(0.00981967 -0.606375 0)
(0.0220747 -0.722506 0)
(0.0315539 -0.689866 0)
(0.043991 -0.684892 0)
(0.0564098 -0.68762 0)
(0.0693666 -0.690995 0)
(0.0827574 -0.694915 0)
(0.0967428 -0.699583 0)
(0.111414 -0.705046 0)
(0.126868 -0.711334 0)
(0.143215 -0.718482 0)
(0.160579 -0.726531 0)
(0.179103 -0.735544 0)
(0.198932 -0.745603 0)
(0.220213 -0.756812 0)
(0.243112 -0.7693 0)
(0.267815 -0.783216 0)
(0.294515 -0.798752 0)
(0.32341 -0.816139 0)
(0.354749 -0.835704 0)
(0.388811 -0.858014 0)
(0.425758 -0.883759 0)
(0.466579 -0.912785 0)
(0.0100179 -0.622635 0)
(0.0215543 -0.732438 0)
(0.0300132 -0.700811 0)
(0.0419358 -0.696933 0)
(0.0536291 -0.700073 0)
(0.0659188 -0.703867 0)
(0.0786233 -0.708318 0)
(0.0919116 -0.713614 0)
(0.105868 -0.719801 0)
(0.120582 -0.726916 0)
(0.136153 -0.735002 0)
(0.152695 -0.744111 0)
(0.170335 -0.754315 0)
(0.189198 -0.765705 0)
(0.209415 -0.778398 0)
(0.231136 -0.792527 0)
(0.254517 -0.808252 0)
(0.279718 -0.825775 0)
(0.306886 -0.845346 0)
(0.336219 -0.867302 0)
(0.36789 -0.892206 0)
(0.401958 -0.920838 0)
(0.438965 -0.95325 0)
(0.0102728 -0.638827 0)
(0.0208678 -0.741351 0)
(0.0280601 -0.711068 0)
(0.0394292 -0.708335 0)
(0.0502753 -0.711859 0)
(0.0617839 -0.716062 0)
(0.0736796 -0.721033 0)
(0.0861423 -0.72694 0)
(0.0992536 -0.733829 0)
(0.113091 -0.74174 0)
(0.127749 -0.750722 0)
(0.143328 -0.760837 0)
(0.159942 -0.772164 0)
(0.177702 -0.784805 0)
(0.196725 -0.798878 0)
(0.217146 -0.814521 0)
(0.2391 -0.8319 0)
(0.262717 -0.851219 0)
(0.288108 -0.87273 0)
(0.315427 -0.896759 0)
(0.344762 -0.923815 0)
(0.376073 -0.954645 0)
(0.409488 -0.989466 0)
(0.0105649 -0.654878 0)
(0.0199795 -0.748933 0)
(0.0256491 -0.720497 0)
(0.0364112 -0.718962 0)
(0.0462589 -0.722825 0)
(0.0568405 -0.727424 0)
(0.0677719 -0.7329 0)
(0.0792424 -0.739396 0)
(0.0913309 -0.746957 0)
(0.104105 -0.755628 0)
(0.117648 -0.765461 0)
(0.132055 -0.776527 0)
(0.147427 -0.78891 0)
(0.163864 -0.802719 0)
(0.181475 -0.818078 0)
(0.200384 -0.835127 0)
(0.220713 -0.854033 0)
(0.242568 -0.874994 0)
(0.266043 -0.898258 0)
(0.291269 -0.924124 0)
(0.318277 -0.953013 0)
(0.346981 -0.985548 0)
(0.377258 -1.02201 0)
(0.0108341 -0.670516 0)
(0.0188513 -0.754726 0)
(0.0227831 -0.728791 0)
(0.0328552 -0.728497 0)
(0.0415413 -0.732641 0)
(0.05103 -0.737614 0)
(0.0608267 -0.743566 0)
(0.0711194 -0.750614 0)
(0.0819816 -0.758802 0)
(0.0934695 -0.76818 0)
(0.105658 -0.778803 0)
(0.118635 -0.790745 0)
(0.13249 -0.8041 0)
(0.147317 -0.818983 0)
(0.163216 -0.835525 0)
(0.180305 -0.853869 0)
(0.198693 -0.874179 0)
(0.218476 -0.896646 0)
(0.239738 -0.921507 0)
(0.262603 -0.949032 0)
(0.287069 -0.979557 0)
(0.313086 -1.01354 0)
(0.34047 -1.05127 0)
(0.0109518 -0.685525 0)
(0.0174415 -0.758457 0)
(0.0195509 -0.735786 0)
(0.0288088 -0.736724 0)
(0.0362054 -0.741085 0)
(0.0444505 -0.746393 0)
(0.0529627 -0.752772 0)
(0.061911 -0.760314 0)
(0.0713605 -0.769064 0)
(0.0813574 -0.77907 0)
(0.0919691 -0.790393 0)
(0.103275 -0.803113 0)
(0.115354 -0.817333 0)
(0.128289 -0.833177 0)
(0.142173 -0.85078 0)
(0.157116 -0.870291 0)
(0.173216 -0.891865 0)
(0.190552 -0.91569 0)
(0.209209 -0.941991 0)
(0.229297 -0.971011 0)
(0.250798 -1.00303 0)
(0.273734 -1.03834 0)
(0.297957 -1.07726 0)
(0.0107276 -0.700121 0)
(0.0157078 -0.760535 0)
(0.0161367 -0.741906 0)
(0.0244116 -0.743975 0)
(0.0304713 -0.748499 0)
(0.0373726 -0.754098 0)
(0.0445046 -0.76085 0)
(0.0520013 -0.76882 0)
(0.0599178 -0.778052 0)
(0.0682922 -0.788599 0)
(0.0771838 -0.800525 0)
(0.0866627 -0.813922 0)
(0.0967969 -0.828897 0)
(0.107655 -0.845583 0)
(0.119321 -0.864121 0)
(0.131894 -0.884659 0)
(0.14545 -0.90735 0)
(0.160052 -0.932374 0)
(0.175777 -0.959948 0)
(0.192711 -0.990293 0)
(0.210836 -1.02364 0)
(0.230211 -1.06021 0)
(0.250711 -1.10029 0)
(0.00996268 -0.714556 0)
(0.0136105 -0.761795 0)
(0.0127657 -0.747819 0)
(0.0198436 -0.750812 0)
(0.0246037 -0.755481 0)
(0.0301246 -0.761337 0)
(0.0358481 -0.768412 0)
(0.0418634 -0.776746 0)
(0.0482111 -0.786386 0)
(0.054923 -0.797392 0)
(0.0620536 -0.809842 0)
(0.0696651 -0.823826 0)
(0.0778113 -0.839456 0)
(0.0865453 -0.856867 0)
(0.0959398 -0.87621 0)
(0.106074 -0.897631 0)
(0.117001 -0.921276 0)
(0.128764 -0.94732 0)
(0.141429 -0.97597 0)
(0.155049 -1.00743 0)
(0.16961 -1.04191 0)
(0.185165 -1.07957 0)
(0.201594 -1.12069 0)
(0.00852755 -0.726841 0)
(0.0111169 -0.761209 0)
(0.00960194 -0.752089 0)
(0.0152369 -0.755728 0)
(0.018788 -0.760538 0)
(0.0229473 -0.766599 0)
(0.0272837 -0.773919 0)
(0.0318418 -0.782526 0)
(0.0366473 -0.792472 0)
(0.0417303 -0.803829 0)
(0.047141 -0.816681 0)
(0.0529306 -0.831117 0)
(0.0591365 -0.847245 0)
(0.0657979 -0.865208 0)
(0.0729725 -0.88516 0)
(0.0807174 -0.907241 0)
(0.0890663 -0.931593 0)
(0.0980509 -0.958388 0)
(0.107718 -0.987821 0)
(0.118095 -1.02008 0)
(0.129167 -1.05535 0)
(0.140954 -1.0938 0)
(0.153364 -1.13566 0)
(0.00647466 -0.732585 0)
(0.00826646 -0.755539 0)
(0.00669661 -0.750913 0)
(0.0106852 -0.754899 0)
(0.0131355 -0.759828 0)
(0.0159976 -0.766013 0)
(0.0189983 -0.773467 0)
(0.0221541 -0.782222 0)
(0.0254867 -0.792335 0)
(0.0290238 -0.803886 0)
(0.0327999 -0.816963 0)
(0.0368463 -0.831657 0)
(0.0411911 -0.848078 0)
(0.0458674 -0.866367 0)
(0.0509143 -0.886677 0)
(0.0563648 -0.909149 0)
(0.0622407 -0.933924 0)
(0.0685698 -0.961174 0)
(0.0753803 -0.991083 0)
(0.0826844 -1.02383 0)
(0.0904623 -1.05959 0)
(0.0987016 -1.09852 0)