/*--------------------------------*- C++ -*----------------------------------*\
  =========                 |
  \\      /  F ield         | OpenFOAM: The Open Source CFD Toolbox
   \\    /   O peration     | Website:  https://openfoam.org
    \\  /    A nd           | Version:  13
     \\/     M anipulation  |
\*---------------------------------------------------------------------------*/
FoamFile
{
    format      ascii;
    class       volScalarField;
    location    "0.9";
    object      alpha.water;
}
// * * * * * * * * * * * * * * * * * * * * * * * * * * * * * * * * * * * * * //

dimensions      [];

internalField   nonuniform List<scalar> 
2268
(
1
1
1
1
1
1
1
1
1
1
1
1
1
0.999998
0.996123
0.967738
0.969368
0.994825
0.993366
0.985687
0.985909
0.995758
0.999722
1
1
1
1
1
1
1
1
1
1
1
1
1
0.999995
0.986731
0.952795
0.952567
0.965644
0.96803
0.961982
0.961982
0.991843
0.999967
1
1
1
1
1
1
1
1
1
1
1
1
1
0.999992
0.998233
0.972101
0.952649
0.952567
0.958103
0.975196
0.984006
0.999211
0.999967
1
1
1
1
1
1
1
1
1
1
1
1
1
1
0.999998
0.999072
0.990256
0.989384
1
1
1
1
0.999979
1
1
1
1
0.999999
0.999999
1
0.999999
1
1
1
1
1
1
0.999999
0.999997
0.999999
0.999999
1
1
1
1
1
1
1
1
1
0.999991
0.999954
0.999934
0.999956
1
1
1
1
1
1
1
1
1
1
0.999999
0.999999
0.999999
1
0.99999
1
1
1
1
0.99998
0.99951
0.999133
0.999935
1
1
1
1
1
1
1
1
0.999997
0.999989
0.999962
0.999963
0.999932
0.999992
0.999963
1
1
1
1
1
0.998139
0.998139
0.999722
0.999615
0.999868
1
1
1
1
1
0.999999
0.9999
0.99958
0.985594
0.97762
0.996372
0.999805
0.999963
0.985967
0.981422
0.984041
0.992873
0.992873
0.992873
0.965922
0.963925
0.844131
0.777472
0.707361
0.707258
0.707576
0.713036
0.708206
0.708429
0.841393
0.855552
0.855582
0.992438
0.992287
0.991302
0.992858
0.992873
0.992873
0.978808
0.865117
0.6569
0.70415
0.801737
0.776626
0.754392
0.80178
0.769751
0.766493
0.855535
0.855565
0.812281
0.992465
0.978874
0.88501
0.886093
0.992858
0.971931
0.851577
0.664004
0.657933
0.801772
0.801772
0.801771
0.801702
0.802078
0.803925
0.805213
0.808995
0.664388
0.655375
0.992319
0.944066
0.739589
0.741755
0.992526
0.885462
0.616038
0.525048
0.775611
0.786934
0.723837
0.775523
0.801645
0.801711
0.802055
0.802736
0.638593
0.63791
0.637904
0.991729
0.920291
0.739589
0.739589
0.988374
0.74172
0.380911
0.354186
0.477769
0.471261
0.472838
0.730977
0.800672
0.799705
0.801151
0.801335
0.763025
0.637905
0.637908
0.990403
0.740197
0.739589
0.740197
0.980431
0.572348
0.0663359
0.100974
0.425357
0.619958
0.625476
0.509218
0.405572
0.414917
0.771876
0.799567
0.721234
0.637929
0.69502
0.990343
0.76845
0.825183
0.819478
0.964512
0.437201
0.0582426
0.0640564
0.334073
0.624508
0.411319
0.0308567
0.00247403
0.00771175
0.241141
0.793416
0.783705
0.716572
0.753417
0.977742
0.964387
0.997357
0.913423
0.943748
0.363398
0.0570918
0.0582426
0.177336
0.305845
0.0662877
0.000749906
0.00100624
0.00223535
0.00733429
0.38596
0.779305
0.771976
0.764648
1
1
1
1
1
1
0.999995
0.983391
0.89327
0.808239
0.786559
0.869867
0.964554
1
1
0.999986
0.970612
0.7406
0.511985
0.46944
0.776625
0.999959
0.999963
0.94596
1
1
0.950039
0.966017
0.999998
0.986188
0.405584
0.0471896
0.0383591
0.0577424
0.204526
0.542386
0.857618
0.964465
0.8453
0.336255
0.124668
0.107857
0.107953
0.138412
0.595314
0.902118
0.369949
0.649475
0.815166
0.95205
0.965405
0.700362
0.157361
0.0142308
0.00892257
0.00839427
0.00842405
0.0191823
0.189141
0.321415
0.337398
0.259601
0.235216
0.122713
0.107953
0.107811
0.108915
0.448777
0.929361
0.369096
0.695042
0.884316
0.877866
0.232645
0.0404629
0.0393821
0.0220935
0.0232716
0.00842409
0.00839383
0.00837294
0.00828779
0.00867938
0.0106279
0.0926852
0.247599
0.250225
0.228612
0.112349
0.43423
0.639416
0.565259
0.430504
0.800436
0.792029
0.153335
0.0389143
0.104076
0.110418
0.110418
0.110418
0.110038
0.0899956
0.0151606
0.00828779
0.00828779
0.00897067
0.151986
0.249426
0.250487
0.249426
0.187758
0.0443189
0.0406648
0.0121047
0.661894
0.709876
0.166593
0.00263791
0.000812673
0.0171216
0.0608503
0.104149
0.109527
0.106367
0.104782
0.103101
0.089645
0.0304865
0.00188677
0.0699683
0.210347
0.249426
0.137487
0.0114643
0.0100749
0.010289
0.0103028
0.650377
0.458831
0.00270271
0.000634757
0.000115044
3.04965e-05
4.14376e-06
3.66831e-06
1.15236e-05
0.000262196
0.050373
0.100516
0.0963791
0.059241
0.000708438
0.000319809
0.000467422
0.00967966
0.0212086
0.00988842
0.00988842
0.0100749
0.0362319
0.584483
0.0454316
0.000556622
0.000110995
2.14383e-05
1.64516e-06
1.60932e-07
3.57186e-07
1.251e-06
5.13388e-06
2.04421e-05
6.30109e-05
0.0054724
0.0103087
0.00172405
0.000259303
0.000171819
0.0004213
0.00879108
0.0533975
0.0534303
0.0423254
0.205239
0.525145
0.000966313
0.000118717
1.65437e-05
1.97329e-06
1.65395e-07
2.1512e-08
5.2506e-08
2.25494e-07
1.19905e-06
4.87091e-06
3.33073e-05
0.000141337
0.00034849
0.000600288
0.000221701
7.59979e-05
0.00012491
0.000302109
0.00282072
0.0966649
0.238837
0.251948
0.516533
0.000259012
2.71072e-05
2.64346e-06
2.32815e-07
2.29647e-08
6.86055e-09
1.71709e-08
6.83736e-08
1.47365e-07
5.55029e-07
4.75796e-06
0.000183477
0.000668519
0.000629978
0.000201254
5.65663e-05
8.34254e-05
0.000138945
0.000249847
0.00387938
0.0356714
0.051519
0.457071
7.28044e-05
6.26961e-06
4.52891e-07
3.28766e-08
6.16377e-09
4.13521e-09
3.26263e-08
1.19796e-07
9.4286e-08
1.53508e-08
2.09985e-08
4.31983e-05
0.000300966
0.000387239
0.000122722
2.19905e-05
0.000191266
0.000558496
0.000245495
9.06817e-05
7.59671e-05
5.83445e-05
0.238794
2.09542e-05
1.30308e-06
7.91234e-08
6.94031e-09
3.17345e-09
3.01317e-09
2.82598e-08
5.39505e-08
4.92755e-08
1.27248e-08
1.45482e-09
1.43842e-09
1.58144e-09
2.89144e-09
8.63462e-09
2.8837e-08
0.00015174
0.000670505
0.0006624
0.000645164
0.000320629
0.000144355
0.0632563
6.09076e-06
3.00617e-07
1.56598e-08
3.26039e-09
2.85872e-09
2.87342e-09
3.57448e-09
2.0722e-09
1.89805e-09
1.63234e-09
1.48986e-09
7.8936e-09
1.08175e-08
1.04766e-08
1.14805e-08
1.02622e-08
1.60327e-08
6.24995e-05
0.00058084
0.000704878
0.000704878
0.000610536
0.14213
1.73848e-06
6.90684e-08
4.97024e-09
2.88383e-09
2.84707e-09
2.84654e-09
3.12069e-09
5.48161e-09
2.07328e-09
1.84246e-09
1.64879e-09
1.68713e-09
9.33559e-09
3.74648e-08
4.04702e-08
1.36387e-08
5.76701e-09
5.72586e-09
5.38867e-09
0.00044003
0.000448267
4.18853e-05
0.172578
0.000605836
1.98727e-07
7.33642e-09
3.15598e-09
2.95039e-09
2.9191e-09
8.99888e-09
8.3519e-08
1.84919e-08
8.86182e-09
4.15569e-09
1.72316e-09
2.33668e-08
9.37866e-08
9.37866e-08
8.89176e-08
2.62083e-08
5.38867e-09
5.37228e-09
5.38323e-09
5.37228e-09
7.39564e-09
0.172578
0.00271735
4.15501e-06
3.70706e-08
3.84867e-09
3.28436e-09
1.67126e-07
1.98661e-08
7.15476e-07
3.4863e-07
1.22194e-07
2.60881e-08
3.14105e-09
1.13416e-08
5.55835e-08
9.37866e-08
9.28529e-08
7.97748e-08
7.97763e-09
5.38867e-09
5.37479e-09
5.22114e-08
3.39592e-07
0.086898
0.00757678
0.000190206
1.29386e-06
9.09353e-09
1.77902e-08
2.97264e-07
1.6159e-05
6.30266e-05
1.99195e-05
1.17498e-06
3.77001e-07
2.90852e-08
4.00512e-09
1.59156e-09
3.1978e-08
7.25026e-08
3.28579e-08
4.14275e-09
7.48568e-09
5.39268e-09
2.16979e-07
6.16288e-07
0.00316078
0.0132887
0.00116708
1.12222e-05
1.28951e-07
1.33102e-07
4.69304e-07
0.000140493
0.000421004
0.000335881
5.09916e-05
5.35212e-06
5.07659e-07
3.00957e-08
1.08031e-09
3.27684e-10
3.19058e-10
3.18486e-10
5.82057e-10
1.14674e-08
1.29947e-08
1.35411e-10
1.03422e-09
0.000457548
0.00460473
0.0034555
0.000362206
8.27158e-06
6.30756e-07
2.08253e-06
0.000133373
0.000434094
0.000435012
0.000241491
8.20542e-06
7.73931e-07
6.1496e-08
4.32241e-09
3.77632e-10
3.18486e-10
3.10781e-10
3.09352e-10
1.3155e-10
1.33119e-10
1.31497e-10
1.33245e-10
4.25335e-05
0.00016763
0.00183119
0.00163689
0.000266552
1.18772e-05
3.5664e-06
9.57947e-05
0.000436183
0.000436223
0.000334226
1.2352e-05
4.35721e-07
4.76988e-08
4.95611e-09
6.10919e-10
3.94326e-10
4.30371e-10
3.80722e-10
1.90287e-10
6.55749e-11
1.60347e-10
4.17322e-10
2.58863e-06
1.71362e-05
5.58991e-05
0.000830043
0.000823219
0.000472805
3.60569e-05
0.000258956
0.000447239
0.000436058
0.000227798
6.43618e-06
5.33927e-07
5.47e-08
5.09198e-09
7.29813e-10
4.48693e-10
4.367e-10
3.52935e-10
2.0545e-10
6.38023e-11
1.36031e-11
1.30567e-11
3.79314e-08
1.25906e-06
6.31363e-06
2.82208e-05
0.000589133
0.000579273
0.000480266
0.00046904
0.000447011
0.000447011
0.000109167
2.94236e-06
3.83487e-07
4.18486e-08
4.06111e-09
5.47847e-10
2.87948e-10
2.80449e-10
2.06343e-10
1.0331e-10
3.41555e-11
7.18622e-12
1.93817e-12
7.46024e-10
1.9049e-08
4.93963e-07
4.15031e-06
0.000281872
0.000516935
0.000485626
0.000458512
0.000450738
0.000307805
1.96599e-05
1.16065e-06
1.59902e-07
1.70382e-08
1.63537e-09
2.34023e-10
1.23046e-10
1.22346e-10
8.40735e-11
3.97648e-11
1.31348e-11
3.21583e-12
7.97827e-13
4.04161e-10
1.04909e-08
1.33106e-07
4.9162e-07
5.26809e-05
0.000453017
0.000458512
0.0004512
0.000336346
3.78742e-05
1.70332e-06
2.30139e-07
2.94437e-08
3.27775e-09
3.236e-10
5.10453e-11
4.06917e-11
3.25273e-11
1.99805e-11
8.98039e-12
2.92801e-12
7.56872e-13
2.04545e-13
9.21652e-11
4.15671e-09
6.00102e-08
7.06782e-07
1.86481e-06
0.000129005
0.000299076
0.000217816
3.89813e-05
1.69431e-06
2.82515e-07
3.62896e-08
3.78621e-09
4.08347e-10
4.33665e-11
9.44659e-12
6.20136e-12
4.29388e-12
2.46509e-12
1.04701e-12
3.30122e-13
8.70453e-14
2.487e-14
2.84949e-11
9.21928e-10
1.04423e-08
2.06169e-07
6.5132e-07
3.18356e-06
1.07084e-05
3.64251e-06
1.88123e-06
3.61002e-07
3.54633e-08
4.64035e-09
4.80795e-10
5.00513e-11
6.24607e-12
1.24236e-12
4.85068e-13
3.04882e-13
1.66335e-13
6.56338e-14
1.87238e-14
4.55339e-15
1.43332e-15
5.24156e-12
1.27334e-10
5.19482e-10
5.51032e-09
6.22179e-08
3.74356e-07
5.67367e-07
3.62754e-07
1.86143e-07
3.62921e-08
3.69891e-09
4.76189e-10
6.0751e-11
1.03519e-11
1.20527e-12
1.08907e-13
2.92555e-14
1.69466e-14
8.71837e-15
3.13627e-15
7.45694e-16
1.37583e-16
8.75362e-17
6.96866e-13
2.88615e-11
4.35701e-11
4.08713e-10
4.79852e-09
3.5924e-08
5.56193e-08
3.46287e-08
1.68019e-08
3.41314e-09
3.60982e-10
5.49199e-11
1.33295e-11
1.66138e-12
1.13599e-13
8.3741e-15
1.92484e-15
1.00625e-15
4.68444e-16
1.48104e-16
2.712e-17
6.82947e-18
1.38498e-17
6.33472e-14
5.74861e-12
1.66887e-11
3.96949e-11
3.80547e-10
2.9901e-09
4.68092e-09
2.86575e-09
1.33258e-09
3.00506e-10
5.28291e-11
1.22116e-11
1.6792e-12
1.3246e-13
8.6831e-15
6.30705e-16
1.34161e-16
6.27611e-17
2.55951e-17
6.66457e-18
9.89325e-19
9.89681e-19
7.70288e-18
5.28609e-15
7.22949e-13
3.21637e-12
8.90135e-12
3.25218e-11
2.21097e-10
3.46529e-10
2.09342e-10
9.92179e-11
3.04058e-11
8.29124e-12
1.29811e-12
1.18065e-13
8.90481e-15
5.87244e-16
4.30343e-17
8.97715e-18
3.75014e-18
1.3187e-18
2.52852e-19
8.09364e-20
2.9336e-19
4.79187e-18
4.2514e-16
6.96426e-14
2.93261e-13
1.38767e-12
4.94035e-12
1.73164e-11
2.56316e-11
1.66873e-11
1.02149e-11
3.95043e-12
7.2459e-13
7.95767e-14
7.14326e-15
5.37092e-16
3.48423e-17
2.61967e-18
5.52029e-19
2.08052e-19
6.07207e-20
9.12322e-21
1.11174e-20
1.23909e-19
2.07585e-18
3.4744e-17
6.24666e-15
2.08437e-14
1.08402e-13
6.6892e-13
2.29992e-12
2.80479e-12
2.8709e-12
1.28876e-12
2.88692e-13
4.01929e-14
4.40909e-15
3.92976e-16
2.88811e-17
1.83951e-18
1.42924e-19
3.08715e-20
1.05613e-20
2.42117e-21
4.99847e-22
2.19631e-21
3.79014e-20
6.30779e-19
2.72276e-18
5.29648e-16
1.44758e-15
6.44429e-15
4.7845e-14
2.3131e-13
3.18292e-13
2.44961e-13
8.06655e-14
1.50024e-14
2.07823e-15
2.25095e-16
1.95745e-17
1.40129e-18
8.76451e-20
7.09091e-21
1.56942e-21
4.85314e-22
8.44603e-23
3.83882e-23
4.18409e-22
8.53705e-21
1.53868e-19
2.00674e-19
4.15969e-17
9.62609e-17
3.79709e-16
2.61931e-15
1.35154e-14
1.89097e-14
1.24189e-14
3.92931e-15
7.35198e-16
9.99e-17
1.05442e-17
8.91656e-19
6.20444e-20
3.81799e-21
3.25652e-22
7.34319e-23
2.0036e-23
2.97471e-24
3.04688e-24
6.16894e-23
1.68314e-21
3.40116e-20
1.39107e-20
3.02951e-18
5.98586e-18
2.1649e-17
1.42637e-16
6.90041e-16
9.14242e-16
5.99894e-16
1.85284e-16
3.3738e-17
4.45914e-18
4.57167e-19
3.74922e-20
2.53e-21
1.53708e-22
1.40347e-23
3.19433e-24
7.34981e-25
1.3695e-25
2.63939e-25
8.11678e-24
3.22938e-22
7.28005e-21
9.08329e-22
2.06376e-19
3.49144e-19
1.17147e-18
7.52365e-18
3.47817e-17
4.39328e-17
2.78424e-17
8.23375e-18
1.4519e-18
1.86194e-19
1.84892e-20
1.46599e-21
9.56961e-23
5.76792e-24
5.71661e-25
1.28772e-25
2.34402e-26
9.67221e-27
3.79179e-26
1.34398e-24
6.96002e-23
1.67292e-21
5.59083e-23
1.32501e-20
1.92597e-20
6.03518e-20
3.79417e-19
1.67795e-18
2.01822e-18
1.22478e-18
3.45932e-19
5.89861e-20
7.31973e-21
7.01694e-22
5.35988e-23
3.37511e-24
2.03261e-25
2.20844e-26
4.71953e-27
7.44831e-28
1.01891e-27
1.0417e-26
3.67687e-25
1.89309e-23
4.28463e-22
3.2474e-24
8.07013e-22
1.01223e-21
2.97996e-21
1.83647e-20
7.75509e-20
8.86999e-20
5.13558e-20
1.38261e-20
2.27502e-21
2.72307e-22
2.51049e-23
1.83952e-24
1.11414e-25
6.77881e-27
8.09933e-28
1.51838e-28
3.76787e-29
2.00757e-28
3.93597e-27
1.31333e-25
5.63966e-24
1.06509e-22
1.78345e-25
4.68939e-23
5.10459e-23
1.41927e-22
8.57937e-22
3.45332e-21
3.75141e-21
2.06434e-21
5.28742e-22
8.37454e-23
9.63322e-24
8.50414e-25
5.94874e-26
3.45739e-27
2.1583e-28
2.80493e-29
4.22014e-30
3.24087e-30
5.6841e-29
1.39188e-27
4.23598e-26
1.39988e-24
2.09147e-23
9.00909e-27
2.61253e-24
2.49201e-24
6.57519e-24
3.8947e-23
1.49083e-22
1.53767e-22
7.98944e-23
1.94339e-23
2.95388e-24
3.25131e-25
2.73448e-26
1.81628e-27
1.01241e-28
6.61976e-30
9.08162e-31
1.30112e-31
3.76659e-31
1.34128e-29
3.48222e-28
9.21522e-27
2.31211e-25
2.79843e-24
3.42217e-28
1.40166e-25
8.29294e-26
2.50364e-25
1.6559e-24
5.82941e-24
5.32195e-24
2.84686e-24
6.79597e-25
1.00055e-25
1.05746e-26
8.4754e-28
5.33096e-29
2.86338e-30
1.99855e-31
2.49475e-32
2.5654e-33
5.31132e-32
1.98433e-30
4.95784e-29
1.10507e-27
2.28735e-26
2.48689e-25
3.28627e-28
3.68731e-27
3.01025e-26
4.47787e-26
9.08679e-26
4.78929e-25
8.56652e-25
1.98409e-25
2.88456e-26
3.05371e-27
2.45344e-28
1.54658e-29
8.73581e-31
4.58078e-32
3.77606e-33
1.7633e-33
1.7633e-33
4.15034e-33
1.12847e-31
2.57777e-30
4.91251e-29
9.52368e-28
9.90799e-27
0.999146
0.99295
0.989347
0.991463
0.949303
0.908461
0.872601
0.858899
0.933163
0.923855
0.910074
0.762919
0.275606
0.628747
0.89356
0.882204
0.0142604
0.0921161
0.632814
0.862656
0.0121053
0.01958
0.0819122
0.532397
0.109804
0.0852767
0.0800109
0.13634
0.257201
0.259777
0.157178
0.136888
0.257881
0.265634
0.268914
0.262122
0.0162033
0.0686601
0.184127
0.25417
3.50916e-05
3.5108e-05
4.30154e-05
0.000175834
3.50624e-05
2.71492e-05
1.86696e-05
1.1015e-05
3.56924e-05
4.49307e-05
1.36246e-05
3.46441e-06
0.000170847
0.000170053
7.49969e-05
1.81488e-06
8.59986e-06
0.000142548
0.000141769
1.89772e-05
1.27281e-07
2.49416e-08
1.94945e-05
2.63037e-05
5.73318e-07
8.45999e-09
3.04225e-10
4.03136e-10
2.55231e-10
3.255e-10
2.89258e-10
2.60944e-10
2.43628e-10
5.13395e-10
5.84056e-10
5.43707e-10
4.96491e-10
4.9805e-10
4.71221e-10
3.19965e-10
2.63504e-11
3.09477e-11
2.2578e-11
2.58122e-11
1.17269e-12
1.29006e-12
1.48208e-12
1.4549e-12
2.15802e-13
2.24694e-13
2.30117e-13
2.4967e-13
4.09801e-14
3.60487e-14
3.4518e-14
3.47019e-14
6.34379e-15
6.05912e-15
6.13748e-15
6.45214e-15
7.97435e-16
8.5438e-16
9.46041e-16
1.19111e-15
9.83951e-17
1.31074e-16
2.27506e-16
4.31833e-16
3.29648e-17
6.80449e-17
1.53534e-16
3.17934e-16
2.42326e-17
5.22134e-17
1.18405e-16
2.32079e-16
1.48908e-17
3.09081e-17
6.79837e-17
1.22288e-16
6.26955e-18
1.26429e-17
2.70354e-17
4.58838e-17
1.87558e-18
3.725e-18
7.83608e-18
1.29475e-17
4.56912e-19
9.04329e-19
1.89257e-18
3.08309e-18
1.01208e-19
2.00011e-19
4.16573e-19
6.70265e-19
2.17255e-20
4.28859e-20
8.89453e-20
1.42182e-19
4.98369e-21
9.85015e-21
1.99957e-20
3.15099e-20
1.25119e-21
2.42094e-21
4.52585e-21
7.51373e-21
2.94517e-22
5.25662e-22
9.92188e-22
2.66259e-21
5.24617e-23
9.17138e-23
2.861e-22
1.82712e-21
6.52952e-24
1.5338e-23
1.22574e-22
1.23469e-21
6.00158e-25
2.96985e-24
4.36467e-23
4.84704e-22
2.67846e-26
3.88787e-25
6.54915e-24
6.76463e-23
0.992226
0.997881
0.997881
0.978339
0.892343
0.234451
0.0570918
0.0986171
0.217034
0.154987
0.000729413
0.000554668
0.000568861
0.000656849
0.00107287
0.0317717
0.40909
0.639877
0.715169
0.988423
0.948054
0.614223
0.950136
0.673081
0.0558491
0.0665029
0.181167
0.178085
0.000730901
0.000554601
0.000534669
0.000548204
0.000571345
0.000665536
0.000739457
0.0009778
0.0241399
0.202166
0.576323
0.545054
0.545091
0.750395
0.445635
0.00618565
0.0809849
0.162587
0.0120501
0.000561402
0.000529464
0.00053285
0.000534628
0.000618856
0.00061506
0.000619698
0.000675618
0.00095708
0.00209268
0.837697
0.67573
0.573528
0.591226
0.16733
0.00326098
0.0228487
0.0146667
0.000619943
0.000529571
0.000525712
0.000529362
0.000540013
0.00273428
0.000616067
0.000619976
0.000669209
0.00456068
0.0282518
0.855279
0.846238
0.833909
0.477397
0.00326222
0.00272934
0.00175758
0.000778429
0.000540175
0.00052865
0.000526963
0.000606791
0.001757
0.00273428
0.000630247
0.000640323
0.000845301
0.00713073
0.0383634
0.846238
0.842536
0.838833
0.377671
0.0027905
0.0027278
0.00271955
0.00260763
0.00413732
0.00229532
0.00551685
0.0064993
0.0051684
0.00185366
0.00077776
0.000760296
0.00121181
0.00479872
0.0383598
0.611332
0.838833
0.826615
0.211072
0.00271974
0.00265803
0.00396486
0.00663148
0.00654611
0.00646073
0.00231635
0.00186976
0.00110605
0.00101294
0.000885035
0.0188611
0.0220634
0.00773977
0.0345817
0.257078
0.796811
0.811537
0.313706
0.00265066
0.00262761
0.00534289
0.00663148
0.0054456
0.00203816
0.0013563
0.00126726
0.00114403
0.00110531
0.00112293
0.109432
0.112237
0.0133918
0.00300277
0.256458
0.500797
0.794868
0.543162
0.00263054
0.00264745
0.00271398
0.00423621
0.0016192
0.00151219
0.00138355
0.00136479
0.0012673
0.00124483
0.0144542
0.135777
0.131437
0.0129811
0.000465112
0.361842
0.514726
0.647476
0.781686
0.367447
0.00366073
0.00191128
0.00176685
0.00167614
0.00161904
0.00179503
0.0056833
0.00263732
0.00221574
0.1259
0.135777
0.0865323
0.00319932
0.00026837
0.0170044
0.476073
0.781686
0.781686
0.781686
0.0904488
0.00218956
0.00189327
0.00176627
0.0192756
0.174057
0.280561
0.234327
0.206851
0.199659
0.124269
0.00880553
3.13962e-06
6.02325e-07
6.2932e-05
0.00100269
0.325864
0.781686
0.781598
0.627708
0.00856146
0.00217151
0.0682408
0.373274
0.440277
0.440277
0.440277
0.43412
0.123001
2.33805e-05
2.2992e-06
5.7093e-07
5.38763e-07
1.89756e-06
8.31052e-05
0.000796666
0.371299
0.781272
0.78151
0.412404
0.457439
0.470928
0.460032
0.375802
0.322848
0.253299
0.0319139
1.2895e-08
2.92668e-08
2.46246e-07
4.54431e-07
4.50818e-07
6.47761e-07
6.82237e-07
1.72053e-05
0.00214218
0.37837
0.687148
0.683004
0.4781
0.169282
4.8141e-05
1.30052e-06
2.6748e-08
1.17721e-09
3.65917e-09
5.63937e-09
1.11712e-08
3.21666e-08
3.99475e-07
5.57835e-07
1.14748e-07
3.71702e-08
1.62101e-06
1.26474e-06
6.91308e-06
0.161677
0.339605
0.0694017
2.95964e-06
1.27687e-07
6.85974e-09
1.17721e-09
8.3104e-10
9.69441e-09
1.46899e-07
1.66537e-07
3.31309e-06
5.33118e-07
6.56316e-06
9.38342e-07
3.6476e-08
6.16027e-10
5.45236e-09
5.19179e-08
6.78237e-08
0.00167386
2.98029e-06
1.24317e-07
6.38567e-09
3.0801e-09
4.94351e-09
7.24589e-10
1.30951e-07
4.81889e-07
1.73147e-07
0.000115092
3.83037e-05
9.33857e-06
2.93941e-07
9.56806e-08
5.12934e-10
5.13298e-10
1.0059e-07
8.51032e-08
2.54313e-09
1.72122e-05
3.28406e-07
6.05347e-10
1.80986e-09
7.9919e-09
6.36771e-10
1.51226e-07
4.84705e-07
2.67083e-07
0.000155595
8.93592e-05
8.94872e-06
2.51341e-10
2.59749e-10
6.90193e-10
5.13374e-10
5.41788e-08
7.99988e-08
2.54135e-09
6.63283e-10
6.00714e-10
5.28938e-10
5.25613e-10
6.6913e-10
6.36044e-10
6.36744e-10
2.13839e-07
5.99253e-08
0.00015569
7.68391e-05
8.93798e-06
2.44554e-10
2.5712e-10
1.23585e-09
2.65828e-09
3.71762e-10
3.77445e-10
1.92512e-09
2.6522e-09
2.07796e-09
7.33884e-10
5.20198e-10
5.43351e-10
6.52786e-10
6.34839e-10
6.33719e-10
6.3372e-10
0.00015504
1.69949e-05
9.16637e-06
2.44609e-10
2.71155e-10
6.61225e-10
2.01529e-09
1.54347e-09
5.1048e-10
1.83585e-10
1.83843e-10
2.29605e-10
3.1595e-10
4.01672e-10
6.39327e-10
7.83971e-10
6.56349e-10
6.36675e-10
6.33719e-10
6.46435e-05
6.96103e-06
1.04892e-05
3.75373e-11
5.21861e-11
4.26727e-11
1.74054e-10
3.87706e-10
3.76002e-10
1.83598e-10
1.53929e-10
1.749e-10
1.87519e-10
2.24489e-10
9.38267e-10
1.17853e-09
8.42747e-10
2.01206e-09
6.35653e-10
6.89759e-10
7.50372e-06
0.000285414
1.56899e-12
2.11601e-12
2.96655e-12
2.97609e-12
3.55125e-12
3.96667e-11
1.15442e-10
1.52685e-10
1.68764e-10
1.75682e-10
5.4116e-09
1.48731e-07
5.91102e-08
9.90985e-09
2.41542e-09
6.89759e-10
2.21837e-06
0.000357267
0.000478961
3.95502e-13
9.55518e-13
2.32485e-12
5.04654e-12
1.73547e-11
8.24271e-11
1.48215e-10
1.49209e-10
1.47152e-10
9.74801e-10
4.09803e-07
7.25648e-07
5.99505e-07
5.63137e-08
2.33858e-09
8.36897e-10
2.83638e-05
0.000570871
0.000379954
4.55625e-14
1.00531e-13
3.96294e-13
2.28057e-12
2.1267e-11
1.11877e-10
1.44345e-10
1.41668e-10
1.44035e-10
4.31911e-07
7.25648e-07
7.25648e-07
7.25648e-07
1.48619e-07
1.62561e-08
1.06238e-09
4.13914e-05
0.000572276
1.39569e-05
1.05352e-14
4.01335e-14
3.30125e-13
2.88703e-12
4.70781e-11
1.25946e-10
1.07611e-10
1.06334e-10
1.52629e-07
7.31363e-07
7.2721e-07
6.29649e-07
2.49743e-07
2.12907e-07
2.66697e-07
1.51094e-09
3.37421e-05
0.000519862
1.30386e-05
2.83372e-15
2.80808e-14
3.55338e-13
5.03835e-12
5.93182e-11
1.25948e-10
1.02325e-10
1.02797e-10
7.0548e-07
7.31363e-07
4.5818e-07
9.59963e-08
9.59963e-08
4.8964e-07
4.88391e-07
3.7185e-09
3.67667e-05
4.5597e-06
7.40271e-06
1.56961e-15
2.867e-14
5.04103e-13
7.27146e-12
6.6117e-11
1.1289e-10
1.02075e-10
3.28196e-08
7.0364e-07
6.95179e-07
9.79735e-08
9.69849e-08
1.02313e-07
5.6908e-07
2.69673e-07
2.25761e-07
5.66531e-05
1.79813e-06
5.36831e-08
1.26972e-15
4.2079e-14
6.94847e-13
8.55246e-12
7.94233e-11
1.01431e-10
1.01741e-10
4.20856e-08
7.00202e-07
3.08264e-07
1.02989e-07
9.79739e-08
2.71032e-07
5.82606e-07
2.74015e-07
3.19228e-07
5.65402e-05
4.76103e-06
2.42163e-09
1.05701e-15
5.62977e-14
9.68481e-13
8.72479e-12
7.59283e-11
1.25676e-10
1.02075e-10
1.7516e-09
1.50836e-07
8.40429e-07
1.69149e-06
1.7172e-07
2.62253e-07
7.54538e-06
3.85016e-05
4.22145e-05
5.76284e-06
2.47357e-09
3.23325e-10
9.36095e-16
7.02951e-14
1.14144e-12
6.31904e-12
5.28279e-11
1.34763e-10
1.51271e-10
1.38024e-10
1.38051e-10
9.43086e-07
1.36463e-05
1.47593e-05
4.34062e-06
1.47988e-05
3.83287e-05
2.93753e-05
8.85171e-07
3.36598e-10
1.95938e-11
9.22322e-16
7.56914e-14
1.10681e-12
3.96002e-12
2.98504e-11
1.16447e-10
1.73207e-10
1.51089e-10
1.38022e-10
5.25155e-08
1.36862e-05
2.54552e-05
2.55969e-05
2.62095e-05
2.64079e-05
1.38818e-06
4.65455e-10
8.89059e-11
6.43521e-12
8.46039e-16
5.98987e-14
4.74086e-13
1.60177e-12
1.41898e-11
5.73718e-11
1.621e-10
2.55381e-10
1.73381e-10
1.74171e-10
9.30882e-08
1.89027e-05
2.54906e-05
2.3217e-05
5.82071e-06
1.77501e-06
1.37176e-11
6.13354e-12
3.97492e-12
3.41028e-16
2.2533e-14
1.50144e-13
5.31878e-13
6.66376e-12
1.99915e-11
1.33083e-10
2.67982e-10
2.53666e-10
1.78189e-10
2.09769e-12
2.09769e-12
8.13344e-06
4.00659e-06
6.38136e-15
5.16866e-13
4.30258e-12
3.79072e-12
3.79296e-12
7.29848e-17
4.19677e-15
3.85169e-14
3.05228e-13
3.60696e-12
6.60375e-12
9.04605e-11
2.62746e-10
2.48006e-10
1.97118e-10
6.54971e-11
7.10245e-12
1.01205e-14
3.70077e-15
3.46805e-15
3.7013e-15
2.59627e-12
1.01374e-11
4.00125e-12
8.76317e-18
7.98879e-16
2.20874e-14
2.96044e-13
1.98135e-12
2.24926e-12
3.77003e-11
1.4144e-10
1.11293e-10
1.21415e-10
9.93271e-11
3.72187e-11
5.36595e-12
1.92073e-13
2.70328e-15
7.59764e-12
1.72514e-11
1.40008e-11
3.13412e-12
2.60757e-18
3.4714e-16
1.94018e-14
2.72364e-13
8.1863e-13
7.23572e-13
7.62003e-12
2.4696e-11
1.99311e-11
4.23729e-11
5.36874e-11
3.5237e-11
6.96298e-12
2.58806e-13
3.86241e-16
1.24423e-11
1.79886e-11
1.04725e-11
8.5192e-13
1.87062e-18
1.71926e-16
1.17573e-14
7.33011e-14
2.03318e-13
1.81329e-13
1.13844e-12
3.11968e-12
3.20331e-12
1.0297e-11
1.12402e-11
6.4937e-12
1.33446e-12
4.76838e-14
1.34722e-18
1.23568e-11
1.52019e-11
3.57515e-12
1.29591e-13
1.36297e-18
6.40218e-17
3.40601e-15
8.27455e-15
2.99324e-14
2.79135e-14
5.90061e-13
1.02442e-12
7.30535e-13
1.02433e-12
8.42471e-13
3.35222e-13
3.70215e-14
3.6838e-16
6.39717e-22
7.51924e-12
5.13338e-12
7.46001e-13
1.20412e-14
6.60536e-19
1.35673e-17
3.11329e-16
4.59844e-16
3.58893e-15
2.93768e-15
1.27313e-13
1.12958e-13
6.18069e-14
2.18111e-14
7.41771e-15
1.47282e-15
7.30861e-17
5.43873e-20
5.78834e-25
2.23225e-12
9.93837e-13
8.16356e-14
5.27605e-16
1.76459e-19
1.46919e-18
5.32209e-18
1.28974e-17
2.20394e-16
1.27478e-16
4.12413e-15
3.08217e-15
8.6529e-16
3.48392e-17
1.9324e-21
1.0132e-26
1.82424e-29
3.07739e-32
4.57706e-35
3.61339e-13
1.14936e-13
4.57504e-15
5.73234e-18
2.24173e-20
7.24544e-20
1.46908e-19
1.14475e-18
3.55987e-18
1.19387e-18
3.37915e-17
1.48568e-17
1.01348e-18
2.62884e-21
1.90314e-26
7.47904e-35
2.51699e-33
2.89681e-41
1.50005e-44
2.26616e-14
6.07958e-15
1.25241e-16
9.51724e-22
6.37357e-22
6.59887e-22
1.02954e-21
1.24817e-20
3.34472e-21
7.15661e-22
5.00125e-22
5.971e-23
3.20079e-25
1.39618e-30
1.06229e-32
1.23315e-42
2.17714e-45
2.97355e-42
-4.71272e-60
1.41867e-17
1.16488e-18
2.38179e-22
1.18045e-28
)
;

boundaryField
{
    leftWall
    {
        type            zeroGradient;
    }
    rightWall
    {
        type            zeroGradient;
    }
    lowerWall
    {
        type            zeroGradient;
    }
    atmosphere
    {
        type            inletOutlet;
        inletValue      uniform 0;
        value           nonuniform List<scalar> 
46
(
3.28627e-28
3.68731e-27
3.01025e-26
4.47787e-26
9.08679e-26
4.78929e-25
8.56652e-25
1.98409e-25
2.88456e-26
3.05371e-27
2.45344e-28
1.54658e-29
8.73581e-31
4.58078e-32
3.77606e-33
1.7633e-33
1.7633e-33
4.15034e-33
1.12847e-31
2.57777e-30
4.91251e-29
9.52368e-28
9.90799e-27
0
0
0
0
0
0
0
0
0
0
0
0
0
0
0
0
0
0
0
0
0
0
0
)
;
    }
    defaultFaces
    {
        type            empty;
    }
}


// ************************************************************************* //
