/*--------------------------------*- C++ -*----------------------------------*\
  =========                 |
  \\      /  F ield         | OpenFOAM: The Open Source CFD Toolbox
   \\    /   O peration     | Website:  https://openfoam.org
    \\  /    A nd           | Version:  13
     \\/     M anipulation  |
\*---------------------------------------------------------------------------*/
FoamFile
{
    format      ascii;
    class       surfaceScalarField;
    location    "0.9";
    object      alphaPhi.water;
}
// * * * * * * * * * * * * * * * * * * * * * * * * * * * * * * * * * * * * * //

dimensions      [0 3 -1 0 0 0 0];

internalField   nonuniform List<scalar> 
4432
(
7.47864e-08
-7.47864e-08
-1.89803e-06
1.97282e-06
-6.17102e-06
4.27299e-06
-1.07654e-05
4.59435e-06
-1.22098e-05
1.44441e-06
-1.03006e-05
-1.90922e-06
-7.82885e-06
-2.4717e-06
-6.46618e-06
-1.36267e-06
-6.16158e-06
-3.04604e-07
-6.70146e-06
5.39882e-07
-8.023e-06
1.32154e-06
-9.94148e-06
1.91849e-06
-1.1796e-05
1.85455e-06
-1.25105e-05
7.14522e-07
-1.19742e-05
-3.03599e-07
-1.36517e-05
1.83608e-06
-1.96172e-05
5.39745e-06
-2.4294e-05
4.71549e-06
-2.27499e-05
-1.40925e-06
-1.71024e-05
-5.46887e-06
-1.12168e-05
-5.84006e-06
-5.2578e-06
-6.01712e-06
-5.27019e-06
-4.99574e-06
4.92095e-06
-1.03946e-05
7.37165e-06
-1.47961e-05
8.67448e-06
-1.62843e-05
6.08263e-06
-1.44935e-05
-3.46402e-07
-1.1221e-05
-5.18176e-06
-8.39509e-06
-5.29759e-06
-6.75087e-06
-3.00688e-06
-6.25176e-06
-8.03711e-07
-6.52952e-06
8.1764e-07
-7.45771e-06
2.24972e-06
-9.03362e-06
3.4944e-06
-1.13111e-05
4.132e-06
-1.44394e-05
3.84319e-06
-1.75431e-05
3.52144e-06
-2.10306e-05
5.27457e-06
-2.22694e-05
6.58208e-06
-1.90251e-05
1.24821e-06
-1.31095e-05
-7.26483e-06
-8.30305e-06
-1.04188e-05
-5.34916e-06
-8.93744e-06
-2.60299e-06
-8.88681e-06
-7.87322e-06
-6.60879e-06
1.15297e-05
-1.22274e-05
1.29903e-05
-1.5778e-05
1.2225e-05
-1.67983e-05
7.10296e-06
-1.52466e-05
-1.8981e-06
-1.2189e-05
-8.23938e-06
-9.26011e-06
-8.22648e-06
-7.46406e-06
-4.80292e-06
-6.73155e-06
-1.53622e-06
-6.71997e-06
8.06063e-07
-7.16717e-06
2.69692e-06
-7.92583e-06
4.25306e-06
-9.08892e-06
5.2951e-06
-1.11042e-05
5.85903e-06
-1.38465e-05
6.42839e-06
-1.48466e-05
7.06204e-06
-1.26328e-05
4.31203e-06
-7.40248e-06
-4.03627e-06
-2.73681e-06
-1.24066e-05
-1.43177e-07
-1.33899e-05
3.16513e-07
-9.65974e-06
2.21144e-07
-8.81946e-06
-7.65211e-06
-6.00854e-06
1.75383e-05
-1.09235e-05
1.79052e-05
-1.42443e-05
1.55459e-05
-1.56999e-05
8.55849e-06
-1.46439e-05
-2.95408e-06
-1.20133e-05
-1.08699e-05
-9.75485e-06
-1.0485e-05
-8.31618e-06
-6.24159e-06
-7.62084e-06
-2.23157e-06
-7.55806e-06
7.43286e-07
-7.99823e-06
3.13709e-06
-8.68281e-06
4.93765e-06
-9.31528e-06
5.92758e-06
-9.74365e-06
6.28742e-06
-9.63206e-06
6.31722e-06
-7.77034e-06
5.28672e-06
-3.74246e-06
4.54302e-07
3.15157e-07
-8.24396e-06
2.38027e-06
-1.44717e-05
2.87478e-06
-1.38844e-05
2.22626e-06
-9.01122e-06
9.45033e-07
-7.53823e-06
-6.70729e-06
-4.55867e-06
2.2097e-05
-8.5135e-06
2.186e-05
-1.13477e-05
1.83802e-05
-1.26719e-05
9.88264e-06
-1.19741e-05
-3.65189e-06
-1.03852e-05
-1.24588e-05
-9.50601e-06
-1.13641e-05
-8.84252e-06
-6.90504e-06
-8.30339e-06
-2.7707e-06
-8.13676e-06
5.76657e-07
-8.58229e-06
3.58262e-06
-9.4762e-06
5.83155e-06
-1.03088e-05
6.76016e-06
-1.05528e-05
6.53141e-06
-9.45065e-06
5.21519e-06
-6.37678e-06
2.21281e-06
-2.01674e-06
-3.90566e-06
1.48243e-06
-1.17431e-05
2.92959e-06
-1.59189e-05
2.98226e-06
-1.39371e-05
1.77958e-06
-7.80854e-06
5.391e-07
-6.29775e-06
-6.16819e-06
-2.73407e-06
2.4831e-05
-5.43382e-06
2.45598e-05
-7.2773e-06
2.02236e-05
-8.11632e-06
1.07217e-05
-7.81869e-06
-3.94918e-06
-7.75242e-06
-1.25248e-05
-8.5021e-06
-1.06145e-05
-8.22912e-06
-7.17853e-06
-7.52458e-06
-3.47525e-06
-7.05529e-06
1.07367e-07
-7.62209e-06
4.14941e-06
-9.03391e-06
7.24337e-06
-1.05313e-05
8.25757e-06
-1.14598e-05
7.45984e-06
-1.09965e-05
4.7519e-06
-8.50429e-06
-2.79362e-07
-4.06067e-06
-8.34928e-06
7.91933e-07
-1.65956e-05
4.15597e-06
-1.92828e-05
4.34846e-06
-1.41295e-05
2.28335e-06
-5.74342e-06
4.49528e-07
-4.46392e-06
-5.71862e-06
-7.45204e-07
2.55762e-05
-2.14982e-06
2.59644e-05
-2.95649e-06
2.10303e-05
-2.93188e-06
1.0697e-05
-2.60932e-06
-4.27131e-06
-4.59189e-06
-1.05242e-05
-6.60412e-06
-8.58853e-06
-5.80721e-06
-7.97707e-06
-4.92875e-06
-4.35373e-06
-4.39392e-06
-4.27465e-07
-4.95323e-06
4.70872e-06
-6.63894e-06
8.92908e-06
-8.90762e-06
1.05263e-05
-1.09993e-05
9.55156e-06
-1.16272e-05
5.3798e-06
-9.64322e-06
-2.26336e-06
-4.12314e-06
-1.3869e-05
2.51809e-06
-2.32359e-05
7.31703e-06
-2.40802e-05
7.84752e-06
-1.46573e-05
4.3274e-06
-2.22131e-06
9.26217e-07
-1.06247e-06
-4.79237e-06
1.36437e-06
2.42119e-05
1.49304e-06
2.58357e-05
2.52916e-06
1.99942e-05
4.79625e-06
8.42995e-06
3.66192e-06
-3.13697e-06
-2.03349e-06
-4.83959e-06
-4.91203e-06
-5.72715e-06
-4.67513e-06
-8.21327e-06
-6.16507e-06
-2.86536e-06
-6.50612e-06
-8.7986e-08
-6.14217e-06
4.34476e-06
-6.07899e-06
8.86591e-06
-7.07293e-06
1.15202e-05
-9.43627e-06
1.19149e-05
-1.11794e-05
7.12293e-06
-9.87306e-06
-3.56962e-06
-4.79899e-06
-1.89319e-05
1.62408e-06
-2.96275e-05
8.07663e-06
-2.77526e-05
1.02855e-05
-1.45837e-05
6.55487e-06
1.65719e-06
1.49805e-06
3.99233e-06
-3.29427e-06
-7.09972e-06
7.14793e-06
-2.60942e-05
1.89226e-05
-2.60224e-05
-2.37939e-07
-4.57401e-06
-2.1448e-05
1.56131e-05
-2.01867e-05
2.08972e-05
-5.28364e-06
6.05601e-06
1.37659e-05
-1.3972e-05
1.9199e-05
-1.68648e-05
2.84329e-06
-1.29847e-05
-7.29759e-07
-1.38451e-05
7.79263e-07
-8.50281e-06
-5.4268e-06
3.13423e-06
-1.17223e-05
1.88887e-05
-1.75924e-05
2.51816e-05
-6.4533e-06
1.39202e-05
1.10858e-05
-3.77126e-06
1.93777e-05
-9.18002e-06
5.43601e-06
-9.15638e-06
-1.84567e-05
2.56819e-05
-2.98124e-05
3.03039e-05
-2.37905e-05
-6.29017e-06
-8.19704e-06
-3.70411e-05
3.44364e-06
-3.18269e-05
6.30843e-08
-1.90267e-06
-1.50487e-05
2.72502e-05
-1.66233e-05
1.84025e-05
-2.00879e-05
5.69053e-06
-2.72546e-05
3.74613e-06
-2.86021e-05
2.14329e-06
-2.57394e-05
-8.20179e-06
-1.69232e-05
-2.28616e-05
-6.22248e-07
-3.3828e-05
1.83002e-05
-2.4454e-05
2.42221e-05
8.99554e-06
1.25725e-05
3.01015e-05
3.58622e-09
1.80301e-05
-9.37267e-06
-1.84048e-05
4.41641e-05
-2.27341e-05
3.52017e-05
-1.8793e-05
-7.53449e-06
-1.42567e-05
-3.93206e-05
-1.34401e-05
-3.26432e-05
-2.00189e-05
4.88425e-06
-2.37722e-05
2.42832e-05
-3.11229e-05
1.46554e-05
-4.7754e-05
1.28572e-05
-5.42753e-05
1.02626e-05
-5.62572e-05
4.17711e-06
-5.22743e-05
-1.20978e-05
-4.07276e-05
-3.42925e-05
-2.37493e-05
-5.08913e-05
-3.7669e-06
-4.5805e-05
1.22375e-05
-8.61586e-06
1.29585e-05
2.53892e-05
5.52917e-06
1.8874e-05
-1.18937e-06
-1.39735e-05
5.82223e-05
-1.41442e-05
3.69816e-05
-1.32364e-05
-8.51292e-06
-1.37953e-05
-3.65802e-05
-1.76234e-05
-2.88182e-05
-2.23057e-05
1.16765e-05
-3.35669e-05
1.86379e-05
-6.16824e-05
1.51486e-05
-7.95012e-05
1.97819e-05
-7.59272e-05
8.87274e-06
-6.6045e-05
-6.65096e-06
-5.94628e-05
-2.78154e-05
-5.13945e-05
-4.22052e-05
-4.11407e-05
-6.1034e-05
-2.4646e-05
-6.23695e-05
-4.55392e-06
-2.93109e-05
5.41825e-06
1.54353e-05
4.97942e-06
1.93098e-05
3.78787e-06
-7.81189e-06
6.61464e-05
-9.13434e-06
3.73169e-05
-9.40955e-06
-8.30835e-06
-1.1308e-05
-3.47524e-05
-2.15714e-05
-1.8103e-05
-2.9106e-05
2.54503e-05
-4.57116e-05
1.83871e-05
-6.31447e-05
9.72195e-06
-5.68196e-05
4.92063e-06
-4.90649e-05
-1.09995e-05
-4.21246e-05
-2.65467e-05
-5.76801e-05
-2.86146e-05
-6.15888e-05
-3.81076e-05
-5.60816e-05
-6.62465e-05
-3.92414e-05
-7.90228e-05
-2.04102e-05
-4.82554e-05
-3.37471e-06
2.16561e-06
-4.96888e-07
1.64296e-05
3.28842e-06
-1.30061e-06
6.76064e-05
-3.33283e-06
3.92746e-05
-4.10402e-06
-7.60782e-06
-7.72215e-06
-2.97785e-05
-2.14536e-05
-3.2752e-06
-1.46761e-05
3.30017e-05
-1.55316e-05
1.63199e-05
-2.4032e-05
5.82825e-06
-6.49745e-05
8.99862e-07
-4.86446e-05
-2.12768e-05
-5.07765e-05
-1.95952e-05
-4.77713e-05
-3.46484e-06
-4.7875e-05
-3.8562e-06
-6.51591e-05
-1.82105e-05
-5.26737e-05
-8.48668e-05
-3.30468e-05
-6.76445e-05
-1.48164e-05
-1.29979e-05
-5.40985e-06
7.01737e-06
-1.44454e-06
5.64092e-06
6.19822e-05
4.76597e-06
4.40425e-05
3.59962e-06
-7.08226e-06
-3.67807e-06
-2.84353e-05
-1.82651e-05
1.35656e-05
-7.68822e-06
3.72933e-05
-9.72203e-06
1.59895e-05
-1.38223e-05
7.24802e-06
-4.52317e-05
-1.38174e-06
-4.74693e-05
-1.39084e-05
-1.65693e-05
3.16079e-07
-1.91776e-06
1.01869e-06
-5.44801e-06
-2.56718e-07
-1.93939e-05
-3.99772e-06
-6.04605e-05
-2.43668e-05
-4.10633e-05
-8.66198e-05
-2.06991e-05
-3.28689e-05
-6.31772e-06
-6.71474e-06
-8.4497e-06
1.19535e-05
4.92742e-05
1.54205e-05
4.3964e-05
1.34356e-05
-5.23246e-06
3.0552e-06
-2.49941e-05
-1.32023e-05
3.15998e-05
-4.52152e-06
3.89343e-05
-5.97183e-06
1.51842e-05
-7.50753e-06
6.41947e-06
-2.00479e-05
3.13176e-07
-1.58268e-05
1.20111e-07
-1.73777e-06
3.69833e-06
-9.14194e-07
2.17133e-07
-1.03212e-06
-1.26522e-07
-3.30274e-06
-1.66458e-06
-2.08323e-05
-6.10195e-06
-4.85033e-05
-4.84157e-05
-2.74332e-05
-5.3494e-05
-7.09345e-06
-2.61395e-05
-1.41255e-05
1.37202e-05
1.04916e-05
1.8667e-05
2.08889e-05
2.23439e-05
1.63173e-05
1.83468e-05
1.24271e-05
2.4052e-06
1.28046e-05
-1.46728e-05
1.22384e-05
-2.34732e-05
3.07446e-06
-2.91643e-05
-7.26553e-07
-3.96932e-05
7.11312e-06
-4.41024e-05
3.12747e-06
-4.32445e-05
7.32305e-07
-3.98486e-05
-8.1893e-07
-3.30674e-05
9.69721e-07
-3.10105e-05
9.85806e-06
-3.39206e-05
1.00331e-05
-3.90072e-05
1.52305e-06
-3.10717e-05
-1.4879e-05
-5.97409e-06
-1.93202e-05
7.12127e-06
-8.92468e-06
1.3137e-05
-3.01491e-06
1.27642e-05
3.95713e-06
-9.37387e-07
1.76947e-05
3.83381e-06
-8.06546e-06
2.05205e-05
-4.53321e-06
2.40463e-05
1.73632e-05
2.15625e-05
1.88011e-05
1.08028e-05
2.05662e-05
-1.08328e-05
3.21354e-05
-4.05618e-05
4.19671e-05
-5.26233e-05
2.23936e-05
-1.12187e-05
-3.59998e-08
-4.92715e-06
5.07758e-07
-4.87211e-06
8.54321e-07
-8.51065e-06
1.43882e-07
-2.74023e-05
-2.64099e-06
-6.5233e-05
-4.88496e-06
-9.73086e-05
6.68794e-06
-0.000116921
1.7704e-05
-7.62471e-05
-1.66889e-06
-1.80889e-05
-2.55308e-05
-2.39609e-06
-2.17545e-05
4.92967e-07
-1.20586e-05
5.20393e-07
-3.28259e-06
-2.48926e-06
2.5027e-06
-8.03666e-06
8.41182e-06
1.50262e-06
-8.64973e-06
1.00878e-05
-1.58917e-05
1.84569e-05
1.47479e-05
-7.66673e-06
3.57866e-05
-4.4962e-05
5.50924e-05
-5.95089e-05
4.43068e-05
-2.10215e-05
7.63842e-06
-1.65112e-06
0
-3.9628e-07
0
-3.75299e-07
1.18761e-06
-8.68466e-07
1.18979e-06
-1.71388e-06
8.28562e-07
-1.37722e-05
1.0015e-06
-5.74769e-05
1.48127e-07
-7.09566e-05
-2.77923e-07
-6.11861e-05
9.36614e-08
-4.9487e-05
-1.02972e-05
-2.98358e-05
-5.07989e-05
-1.22414e-05
-3.18545e-05
-9.75445e-06
-1.47281e-05
-1.2583e-05
-7.38606e-07
-1.76618e-05
7.05978e-06
-0.00010702
5.70239e-06
-1.18694e-05
-9.14898e-05
-1.09065e-05
-6.23032e-06
-5.78855e-05
4.88902e-05
-9.9305e-05
9.07854e-05
-8.91944e-05
5.86756e-05
-2.09102e-05
0
-1.08885e-05
0
-8.18943e-06
0
-4.92458e-06
-3.61167e-07
-1.16164e-06
1.10815e-07
-5.45564e-07
4.30506e-07
-3.47856e-07
4.73958e-07
-6.07421e-07
1.10144e-06
-1.45192e-06
8.39283e-07
-2.34109e-06
5.33844e-07
-3.3785e-06
1.2027e-07
-1.83378e-05
-1.86946e-05
-3.60191e-05
-4.08634e-05
-3.25872e-05
-3.21726e-05
-1.35901e-05
-1.51852e-05
-1.95598e-05
3.16155e-07
-0.000116788
1.36902e-05
-9.74694e-05
3.11113e-06
-2.70234e-06
-4.28619e-05
-5.69987e-05
3.68056e-05
-0.000110937
0.000110636
-9.5408e-05
8.47646e-05
-3.29569e-05
1.32559e-05
-3.66118e-05
1.68039e-06
-4.00935e-05
1.6419e-06
-3.77093e-05
-1.59502e-06
-3.2917e-05
-4.3643e-06
-2.76002e-05
-4.4168e-06
-2.27576e-05
-3.27275e-06
-8.54918e-06
-1.99456e-06
-6.7695e-07
7.83886e-07
-6.34264e-07
6.43245e-07
-1.91576e-06
1.66199e-06
-4.74704e-06
1.15832e-06
-4.21336e-05
-1.36994e-05
-4.55414e-05
-3.4376e-05
-4.45958e-05
-2.99811e-05
-4.59617e-05
-1.07396e-05
-2.4872e-05
4.68972e-06
-1.18561e-05
2.17268e-06
-3.06481e-06
-5.23009e-08
-1.43027e-06
-5.73114e-06
-8.80062e-05
0.000112279
-8.63303e-05
0.000102925
-1.61213e-05
2.05378e-05
-5.2626e-06
2.7076e-06
-4.16877e-06
5.7521e-07
-7.60097e-06
2.31432e-07
-2.27246e-05
-1.67508e-07
-3.20685e-05
-6.69923e-07
-3.35142e-05
-1.83865e-06
-3.08408e-05
-3.53567e-06
-2.67553e-05
-4.35061e-06
-2.10344e-05
-3.85214e-06
-1.348e-05
2.31161e-06
-2.55127e-06
4.87332e-06
-1.09644e-06
1.50171e-06
-2.35943e-05
-4.5977e-07
-4.96381e-05
-5.35757e-06
-5.97009e-05
-1.68387e-05
-1.55886e-05
-5.17049e-06
-3.35018e-06
1.10381e-06
-2.56756e-06
4.49383e-07
-2.99984e-06
-5.54371e-07
-2.5127e-06
-2.59261e-06
-4.69834e-05
0.000148896
-1.99703e-05
4.7085e-05
-3.04896e-06
3.93097e-06
-7.48476e-07
5.15273e-07
-2.57508e-07
8.83538e-08
-4.14308e-08
1.69961e-08
-2.09407e-07
9.65851e-11
-8.74333e-07
-5.70548e-09
-2.69231e-06
-2.36857e-08
-6.44048e-06
-7.8784e-08
-2.14058e-05
-3.6624e-07
-2.46615e-05
-1.31137e-06
-2.13388e-05
-8.05703e-08
-2.45918e-06
3.20564e-06
-3.35538e-07
2.2195e-07
-7.5266e-07
1.51323e-08
-5.7002e-06
-2.64592e-07
-6.51745e-06
-1.24515e-06
-2.89963e-06
-2.02476e-06
-2.52261e-06
2.61679e-08
-2.50041e-06
-2.74857e-07
-3.05187e-06
-9.40886e-07
-1.02731e-05
-1.36831e-05
-1.72931e-05
0.000151324
-3.22509e-06
1.39088e-05
-4.84932e-07
1.24469e-06
-9.35632e-08
1.27749e-07
-1.66234e-08
1.5238e-08
-1.18599e-09
1.69338e-09
-1.14604e-09
4.18203e-11
-6.92082e-09
-3.83719e-11
-3.0271e-08
-7.48949e-10
-1.06937e-07
-3.8706e-09
-4.59532e-07
-1.89603e-08
-1.72701e-06
-6.45614e-08
-3.55288e-06
-1.12413e-07
-1.57584e-06
7.14089e-09
-2.24376e-07
1.94062e-07
-1.69413e-07
1.09281e-09
-3.31154e-07
-6.17198e-08
-1.30165e-06
-2.24292e-07
-7.08726e-06
-5.03079e-07
-7.98909e-06
-1.63299e-06
-4.86862e-06
-4.6549e-06
-1.13358e-05
-1.43257e-05
-2.65481e-05
-4.14151e-05
-8.93037e-06
0.000168316
-1.01941e-06
6.06573e-06
-1.11248e-07
3.48254e-07
-1.43778e-08
3.16475e-08
-1.61872e-09
2.65444e-09
-1.27235e-10
1.95468e-10
-9.61213e-11
7.14744e-12
-1.4971e-10
2.10706e-12
-9.44574e-10
-1.49214e-11
-4.85915e-09
-3.1261e-10
-2.31659e-08
-2.47433e-09
-1.05003e-07
-7.50212e-09
-2.57362e-07
-2.74616e-08
-2.90749e-07
0
-1.51193e-07
2.9764e-10
-7.29474e-08
-1.46323e-08
-7.59546e-08
-1.93544e-08
-2.20184e-07
-4.11161e-08
-6.13217e-07
-1.02337e-07
0
-3.56672e-07
-2.20093e-05
-4.05838e-06
-3.65845e-05
-1.81e-05
-1.61315e-05
-3.84109e-05
-4.3087e-06
0.000168777
-2.82387e-07
2.05812e-06
-2.66339e-08
9.50607e-08
-2.38773e-09
7.54678e-09
-1.82678e-10
4.66974e-10
-1.24099e-11
2.37377e-11
-7.16517e-12
1.07168e-12
-9.09493e-12
6.74632e-13
-2.20007e-11
0
-3.59727e-10
-9.18317e-12
-2.85437e-09
-1.49751e-10
-1.09267e-08
-8.15457e-10
-1.05664e-07
-6.75099e-09
-1.97322e-07
-1.97215e-08
-2.03959e-07
-2.41739e-08
-5.2521e-08
-1.87291e-08
-3.01449e-08
-1.11999e-08
-1.70858e-08
-2.89354e-08
-4.18662e-08
-5.631e-08
-3.13935e-07
-8.33453e-08
-4.90823e-06
-1.30826e-07
-1.06667e-05
-6.8618e-08
-4.20107e-08
-3.85552e-06
-1.48852e-06
0.000108061
-7.3186e-08
6.47528e-07
-6.13054e-09
2.80678e-08
-4.01258e-10
1.84134e-09
-2.138e-11
8.91613e-11
-1.59242e-12
3.68635e-12
-1.38529e-12
4.62238e-13
-5.79128e-12
1.53318e-12
-8.39581e-12
9.42645e-13
-1.52002e-12
2.04918e-14
-1.45355e-10
-5.41513e-12
-9.06751e-10
-4.14474e-14
-2.734e-08
-5.91566e-13
-6.81812e-08
-3.59802e-12
-6.43128e-08
-4.79707e-11
-1.76263e-08
-7.17818e-10
0
-1.68132e-09
-4.6815e-08
-2.37659e-08
-9.37374e-08
-9.67357e-08
-2.7432e-08
-1.32879e-07
-1.61509e-08
-1.38899e-07
-1.09972e-08
-7.00988e-08
-3.82385e-08
-1.40987e-08
-4.65431e-07
2.06182e-05
-2.01045e-08
2.0374e-07
-1.43046e-09
9.46944e-09
-7.34789e-11
4.85039e-10
-3.24298e-12
1.89918e-11
-7.86358e-13
1.12209e-12
-1.01712e-12
4.78474e-13
-4.69545e-12
1.0779e-12
-6.43703e-12
5.40701e-13
-3.45735e-12
-4.91977e-14
-1.56964e-13
-9.81939e-14
-1.57439e-13
-1.0178e-13
-3.55446e-13
-4.49199e-13
-3.18102e-12
-7.30491e-13
-4.98242e-11
-9.91142e-13
-7.6459e-10
-3.05652e-12
-2.41704e-09
-2.41621e-11
-3.60973e-08
-1.86625e-09
-6.41962e-08
-4.19944e-08
-8.42323e-08
-8.25273e-08
-8.84633e-08
-9.82823e-08
-5.00296e-08
-1.05439e-07
-7.74548e-08
-5.79677e-09
-1.43374e-07
5.37148e-05
-6.46447e-09
6.71282e-08
-3.66465e-10
3.59235e-09
-1.4962e-11
1.33927e-10
-7.95314e-13
4.67939e-12
-5.46166e-13
7.47878e-13
-6.79093e-13
4.69844e-13
-4.67237e-13
2.32627e-13
-3.50596e-13
7.64992e-14
-2.72746e-13
-4.20801e-13
-1.64667e-13
-3.7827e-13
-3.42677e-13
-6.6563e-14
-3.90331e-13
-1.07952e-13
-2.48672e-13
-4.39847e-13
-1.50984e-13
-8.80948e-13
-4.70188e-13
-2.78083e-12
-2.25778e-11
-2.38357e-12
-1.88598e-09
-2.89876e-12
-1.18662e-08
-1.01468e-12
-4.15459e-08
-2.69512e-09
-4.84622e-08
-5.66824e-08
-5.09857e-08
-6.8232e-08
-4.13888e-08
-1.76566e-08
-5.49153e-08
9.07459e-05
-1.96071e-09
1.42309e-08
-1.03348e-10
1.74629e-09
-3.30782e-12
3.77793e-11
-4.21179e-13
1.67845e-12
-5.60092e-13
7.63617e-13
-7.95424e-13
5.82206e-13
-1.53793e-12
5.93618e-13
-2.63223e-12
0
-1.94392e-12
-1.45698e-12
-4.25693e-13
-2.35926e-12
-1.44322e-13
-8.36906e-13
-4.93702e-13
-3.49298e-13
-4.97966e-13
-2.00336e-12
1.91417e-13
-6.87615e-12
6.30023e-13
-7.84044e-12
3.86823e-13
-4.15429e-12
1.23055e-13
-2.6405e-12
3.22687e-14
-9.50984e-13
-2.69438e-09
-7.30809e-13
-8.01972e-09
-6.39221e-13
-5.98271e-09
-6.34473e-12
-1.84422e-10
-9.33334e-09
-2.67287e-10
0.000101108
-1.30806e-09
9.0632e-07
-2.63225e-11
2.72201e-10
-6.49733e-13
1.34787e-11
-5.89534e-13
1.43999e-12
-1.55658e-12
1.53587e-12
-8.39329e-12
7.3582e-12
-3.29113e-11
1.96528e-11
-5.9095e-11
0
-3.09277e-11
-3.10616e-11
-4.70778e-12
-3.08247e-11
-5.65544e-13
-6.6301e-12
-4.96588e-13
-1.02143e-12
-1.63651e-12
-2.08093e-12
2.64215e-13
-8.19383e-12
2.12052e-12
-9.20872e-12
1.75096e-12
-8.56698e-12
3.96499e-13
-5.40081e-12
2.49911e-13
-8.25706e-13
1.6138e-13
-6.62274e-13
8.50952e-14
-5.82001e-13
1.15552e-14
-6.29119e-12
-5.41084e-11
-1.30553e-10
2.49722e-06
8.1528e-05
-1.25306e-08
4.32625e-06
-2.40408e-11
1.19582e-08
-1.31113e-12
7.60576e-11
-3.7022e-12
4.55693e-12
-3.0613e-11
2.86082e-11
-4.41286e-11
1.68347e-10
-5.87123e-10
8.71785e-10
-8.11183e-10
0
-3.55288e-10
-5.21324e-10
-5.23661e-11
-3.65601e-10
-4.67054e-12
-6.53865e-11
-7.00904e-13
-6.12663e-12
-1.77512e-13
-8.29154e-13
9.08582e-13
-6.52673e-13
2.28851e-12
-1.0022e-11
3.31189e-12
-8.49012e-12
1.50288e-12
-7.29935e-12
3.77609e-13
-6.81083e-13
3.50039e-13
-6.56014e-13
3.08707e-13
-5.60932e-13
7.05104e-12
-1.93954e-11
-6.62047e-11
8.59119e-12
2.95174e-06
4.37496e-06
1.97946e-07
7.67128e-06
1.57711e-08
4.64648e-07
-2.19787e-12
1.448e-08
-1.58204e-11
2.4843e-11
-1.57284e-10
1.93461e-10
-1.80732e-10
7.67061e-10
-1.41656e-08
1.01838e-08
-9.54991e-09
-1.73417e-08
-2.64802e-09
-1.97094e-08
-3.98019e-10
-2.40286e-09
-2.42372e-11
-5.16483e-10
-5.7243e-13
-3.63469e-11
1.02929e-13
-1.86484e-12
8.19361e-14
-6.23953e-13
2.44397e-12
-3.61406e-13
2.43505e-12
-7.81221e-14
3.19115e-13
-4.66369e-14
1.24508e-13
-1.5399e-13
8.00535e-13
-1.13016e-12
1.44382e-12
-1.22219e-12
1.16036e-11
-7.1557e-13
-1.00553e-13
2.82426e-11
1.27793e-06
9.08926e-07
8.42235e-07
4.34256e-06
1.39293e-07
1.39391e-06
1.47432e-08
1.42435e-07
6.48109e-10
1.41782e-08
8.61012e-12
8.39646e-10
-1.20517e-10
1.31277e-09
-1.13783e-08
2.62292e-08
-1.743e-08
-1.55039e-08
-1.14033e-08
-9.41853e-08
-9.76475e-10
-2.94e-08
0
-3.32417e-09
0
-2.51784e-10
0
-1.58791e-11
1.87675e-13
-8.90564e-13
3.086e-14
-2.09344e-13
1.83379e-14
-6.51902e-14
1.77306e-14
-4.68058e-14
1.75738e-13
-3.61941e-14
6.43615e-13
-3.36523e-14
7.28731e-13
-1.22977e-14
3.37037e-14
-1.71959e-14
-3.9258e-14
4.79244e-14
4.40902e-07
1.19218e-07
1.01074e-06
4.95742e-07
3.85572e-07
1.20765e-06
1.02562e-07
5.77791e-07
2.0923e-08
9.82553e-08
3.40469e-09
1.84377e-08
2.30674e-09
1.51644e-09
5.84986e-08
3.00584e-08
5.86754e-08
-1.11873e-08
5.08285e-08
-8.1814e-08
9.05752e-10
-6.53975e-08
0
-6.5015e-09
0
-5.45938e-10
0
-4.03377e-11
0
-2.84609e-12
3.12145e-14
-2.71603e-13
2.28291e-14
-5.8542e-14
1.98284e-14
-4.5296e-14
1.87883e-14
-3.75058e-14
7.81047e-15
-2.04302e-14
7.01099e-15
-8.91071e-15
6.57043e-15
-1.44969e-14
-3.65261e-14
6.45679e-15
7.11559e-08
9.31755e-09
3.69892e-07
8.70691e-08
5.87972e-07
1.90065e-07
2.75868e-07
4.41418e-07
1.2906e-07
3.63159e-07
3.23237e-08
1.13622e-07
1.72065e-08
1.54141e-08
1.35326e-07
5.66255e-08
1.27363e-07
8.25935e-09
1.12725e-07
-6.04477e-08
1.15301e-08
-7.44567e-08
2.22766e-11
-5.75588e-09
0
-6.78518e-10
0
-6.43508e-11
0
-5.34078e-12
2.8649e-14
-4.40727e-13
3.22106e-14
-7.16885e-14
2.96249e-14
-4.39435e-14
2.17202e-14
-3.44742e-14
6.85532e-15
-1.78087e-14
3.69674e-15
-5.69181e-15
1.11073e-14
-1.77156e-15
-2.18717e-15
1.99164e-14
6.33217e-09
3.37535e-10
7.37317e-08
7.81687e-09
2.02627e-07
3.85612e-08
3.56605e-07
1.28102e-07
2.76752e-07
2.73288e-07
1.04955e-07
2.6422e-07
8.43008e-08
1.58584e-07
1.88947e-07
1.43811e-07
1.64939e-07
3.807e-08
1.42029e-07
-2.58961e-08
7.03851e-09
-3.67059e-08
4.53723e-10
-3.62393e-09
3.97564e-11
-4.8993e-10
3.08587e-12
-5.09075e-11
2.64304e-13
-4.51816e-12
5.5772e-14
-3.81699e-13
3.67061e-14
-5.74249e-14
3.09262e-14
-3.32578e-14
2.04378e-14
-2.29972e-14
8.2222e-15
-1.14488e-14
1.52376e-15
-3.63918e-15
6.55048e-16
-7.63163e-16
-2.3272e-16
5.6046e-16
3.06039e-10
1.75003e-12
6.82366e-09
1.97731e-10
3.79682e-08
4.21093e-09
1.5136e-07
3.36508e-08
3.10163e-07
8.60789e-08
2.77417e-07
2.42722e-07
2.27378e-07
2.00492e-07
2.22414e-07
1.36942e-07
1.97204e-07
6.46865e-08
1.09667e-07
5.9286e-09
4.35751e-09
-5.5339e-09
5.52001e-10
-1.15891e-09
5.54716e-11
-1.81325e-10
4.80098e-12
-2.12088e-11
3.845e-13
-2.07625e-12
6.34214e-14
-1.85643e-13
2.62231e-14
-2.60162e-14
2.02935e-14
-1.48617e-14
1.17788e-14
-9.41413e-15
4.08477e-15
-4.38509e-15
8.83376e-16
-1.42347e-15
1.5042e-16
-3.35258e-16
-8.19441e-17
4.92999e-17
2.15172e-12
-8.58295e-15
1.77471e-10
0
3.99154e-09
0
3.41096e-08
3.07644e-09
1.73772e-07
2.30954e-08
2.13755e-07
1.53878e-07
2.06597e-07
1.73812e-07
2.02166e-07
1.35584e-07
1.86975e-07
8.37422e-08
2.73477e-08
6.85415e-09
1.912e-09
4.44204e-12
2.77526e-10
-1.42869e-10
3.05157e-11
-2.9961e-11
2.8578e-12
-3.91674e-12
2.29203e-13
-3.96179e-13
6.49734e-15
-3.34839e-14
1.21447e-14
-6.33432e-15
9.51701e-15
-3.69312e-15
4.70416e-15
-2.17998e-15
1.58943e-15
-9.75735e-16
3.65937e-16
-3.17607e-16
7.04246e-17
-8.1528e-17
-2.12536e-17
1.02695e-17
0
2.55264e-15
0
5.80649e-14
1.81881e-11
5.88716e-13
2.86374e-09
1.36243e-10
5.56279e-08
1.53738e-09
1.13331e-07
7.23725e-08
1.36335e-07
1.42638e-07
1.49258e-07
1.26229e-07
3.3304e-08
1.8118e-08
1.38928e-09
1.112e-10
3.42713e-10
3.48731e-11
5.27871e-11
4.16163e-13
6.22336e-12
-2.38009e-12
6.04316e-13
-4.3398e-13
5.12325e-14
-4.36775e-14
6.69017e-15
-3.55309e-15
3.62495e-15
-7.77365e-16
2.28622e-15
-4.28566e-16
1.08401e-15
-2.44315e-16
3.5518e-16
-1.05471e-16
8.40104e-17
-3.39105e-17
1.78545e-17
-9.05076e-18
-2.53493e-18
2.41413e-18
0
3.73763e-15
0
1.51931e-13
0
1.78222e-12
0
5.61545e-11
2.15831e-09
1.4393e-11
3.10485e-08
2.48504e-09
4.10589e-08
1.2141e-08
1.87208e-08
1.22686e-09
1.07589e-09
0
1.8108e-10
0
2.93756e-11
7.89463e-12
5.67166e-12
4.8956e-13
7.67571e-13
7.2749e-15
7.11048e-14
-1.98844e-14
5.09942e-15
-2.25837e-15
1.15677e-15
-2.48652e-16
5.02968e-16
-4.95014e-17
2.77115e-16
-2.50047e-17
1.2798e-16
-1.39109e-17
3.98792e-17
-5.75029e-18
9.41394e-18
-1.72185e-18
2.12516e-18
-4.34741e-19
-1.33644e-19
3.60422e-19
-4.78024e-17
1.09042e-15
0
3.58335e-14
0
2.25355e-13
0
1.99567e-12
-1.90011e-10
2.4031e-12
9.14021e-10
2.83223e-10
2.58382e-09
5.2237e-10
1.45613e-09
8.32499e-11
2.79879e-10
0
1.95665e-11
0
3.09376e-12
9.34114e-13
3.79704e-13
8.71893e-14
5.79493e-14
5.32758e-15
5.62899e-15
1.0959e-16
8.06097e-16
-8.66401e-17
1.06579e-16
-1.34822e-17
3.40815e-17
-2.39592e-18
1.81579e-17
-1.07584e-18
8.04474e-18
-5.83967e-19
2.30861e-18
-2.28525e-19
4.93081e-19
-5.92378e-20
1.12277e-19
-1.17177e-20
-6.71504e-21
3.74138e-20
-2.99695e-16
1.43673e-16
-1.75349e-15
5.93886e-15
-3.00025e-15
8.47606e-15
0
6.42495e-14
-1.60833e-11
1.45504e-12
9.56531e-11
2.94287e-11
2.73338e-10
4.85298e-11
1.45922e-10
6.44784e-12
2.77576e-11
0
1.90896e-12
0
2.67417e-13
5.11263e-14
4.03099e-14
6.25428e-15
6.69255e-15
1.60032e-15
9.58198e-16
1.14865e-16
7.83561e-17
3.3217e-19
7.18577e-18
-5.23607e-19
1.86276e-18
-1.07215e-19
9.08783e-19
-4.64495e-20
3.82861e-19
-2.42367e-20
9.73907e-20
-8.76476e-21
1.62873e-20
-1.83904e-21
4.93533e-21
-4.64821e-22
-7.16921e-22
4.19058e-21
-9.1191e-17
1.66425e-17
-5.58813e-16
1.34886e-15
-1.94984e-15
3.98356e-15
-6.11132e-15
1.35579e-14
5.47285e-13
2.1405e-13
1.30905e-11
2.65416e-12
2.75699e-11
3.92407e-12
1.3518e-11
4.23412e-13
2.62365e-12
0
2.20633e-13
0
3.07921e-14
2.2609e-15
7.70537e-15
2.2133e-15
1.16001e-15
3.22239e-16
8.83651e-17
1.81979e-17
5.72383e-18
5.42089e-19
4.80637e-19
-5.07062e-21
1.06989e-19
-3.94077e-21
4.71871e-20
-1.94168e-21
1.79828e-20
-9.87153e-22
3.87023e-21
-3.15517e-22
5.89726e-22
-5.59566e-23
3.67969e-22
-4.79786e-23
-3.08313e-22
8.77116e-22
-6.6442e-18
1.57516e-18
-4.59999e-17
2.17152e-16
-6.49525e-17
9.26483e-16
5.52058e-15
2.82516e-15
1.42795e-13
1.93094e-14
1.36513e-12
2.07242e-13
2.3966e-12
2.86358e-13
1.10878e-12
2.85212e-14
2.34414e-13
0
3.52436e-14
1.82983e-15
6.62162e-15
2.14034e-15
9.85722e-16
3.87219e-16
8.81806e-17
2.87707e-17
6.26415e-18
1.59729e-18
3.9888e-19
6.67916e-20
3.05502e-20
1.58757e-21
6.28796e-21
-7.33073e-23
2.51394e-21
-6.82759e-23
8.25991e-22
-3.60786e-23
1.42389e-22
-9.42966e-24
5.29817e-23
-3.3392e-24
4.80588e-23
-1.07516e-23
-1.69936e-22
5.6881e-22
-3.12913e-19
1.33224e-19
1.94552e-18
2.31265e-17
4.45792e-17
1.00871e-16
7.37314e-16
4.72201e-16
1.25273e-14
2.16019e-15
1.11421e-13
1.53478e-14
1.8082e-13
1.98947e-14
8.33165e-14
2.71319e-15
2.08476e-14
7.59609e-16
3.95107e-15
1.34707e-15
6.39876e-16
2.67771e-16
6.68538e-17
2.64011e-17
5.56756e-18
1.95512e-18
3.95642e-19
1.16837e-19
2.46278e-20
5.42762e-21
1.81862e-21
1.9046e-22
3.49785e-22
4.66366e-24
1.26234e-22
-1.61927e-24
3.4268e-23
-1.08447e-24
6.07294e-24
-2.57764e-25
4.24117e-24
-3.31472e-25
2.28636e-23
-3.75959e-24
-7.08597e-23
3.44769e-22
1.31127e-22
1.05003e-20
8.19833e-19
2.16721e-18
7.70067e-18
7.61943e-18
7.81327e-17
4.24969e-17
9.20069e-16
2.8461e-16
7.71912e-15
1.34561e-15
1.22277e-14
1.40875e-15
5.73643e-15
1.25332e-15
1.57116e-15
5.40432e-16
3.13524e-16
1.27413e-16
3.8097e-17
1.61316e-17
3.82909e-18
1.54916e-18
3.17788e-19
1.18844e-19
2.20312e-20
7.25058e-21
1.34218e-21
3.52528e-22
9.83371e-23
1.42557e-23
1.80607e-23
6.60113e-25
5.76268e-24
9.00917e-27
1.2539e-24
-2.39055e-26
5.08291e-25
-9.45044e-27
5.78502e-25
-4.97772e-26
1.00653e-23
-1.01786e-24
-1.97583e-23
1.40991e-22
8.61106e-23
8.46315e-22
1.15268e-19
1.91521e-19
7.73901e-19
5.4266e-19
6.84981e-18
2.65054e-18
7.51475e-17
2.22174e-17
5.27464e-16
1.38463e-16
7.83972e-16
1.99923e-16
4.21162e-16
1.34405e-16
1.02183e-16
4.05966e-17
1.63206e-17
6.81641e-18
2.02046e-18
8.62458e-19
2.00537e-19
8.40212e-20
1.62183e-20
6.43622e-21
1.09344e-21
3.94024e-22
6.51789e-23
1.95233e-23
4.81661e-24
8.45498e-25
8.56987e-25
4.93537e-26
2.35448e-25
4.00804e-27
4.51967e-26
-2.60309e-28
2.50237e-26
-4.39361e-28
1.66931e-25
-7.27711e-27
2.92105e-24
-1.94213e-25
-4.22389e-24
4.02099e-23
1.08837e-23
6.41623e-23
1.19844e-20
1.56322e-20
6.23987e-20
3.70162e-20
4.80802e-19
1.59229e-19
5.1628e-18
1.25803e-18
3.43703e-17
8.62145e-18
4.88301e-17
1.29239e-17
2.34521e-17
6.98291e-18
5.18882e-18
1.93645e-18
8.13374e-19
3.40891e-19
9.86705e-20
4.31626e-20
9.52016e-21
4.15918e-21
7.47591e-22
3.15288e-22
4.89312e-23
1.91755e-23
2.85314e-24
9.53305e-25
2.13632e-25
4.2953e-26
3.74742e-26
2.84348e-27
8.79266e-27
2.97342e-28
2.04187e-27
8.38339e-30
1.68955e-27
-1.80751e-29
3.17707e-26
-7.92359e-28
6.1477e-25
-3.10302e-26
-7.9871e-25
9.1765e-24
1.02473e-24
4.56436e-24
1.03587e-21
1.17495e-21
4.34322e-21
2.35143e-21
2.99479e-20
9.24861e-21
3.05393e-19
6.94024e-20
1.88329e-18
4.38033e-19
2.57614e-18
6.12936e-19
1.15481e-18
3.34027e-19
2.46916e-19
9.27358e-20
3.75029e-20
1.61163e-20
4.4149e-21
2.00482e-21
4.13064e-22
1.89863e-22
3.14303e-23
1.41582e-23
1.99338e-24
8.48885e-25
1.13783e-25
4.19189e-26
8.68287e-27
1.941e-27
1.48913e-27
1.40523e-28
3.04682e-28
1.52101e-29
1.25623e-28
9.44117e-31
1.21167e-28
-4.08661e-31
4.40784e-27
-6.95294e-29
1.12551e-25
-4.64133e-27
-1.43249e-25
1.88005e-24
8.28946e-26
3.05597e-25
7.79866e-23
8.2129e-23
2.68055e-22
1.39336e-22
1.69869e-21
5.08283e-22
1.66167e-20
3.70469e-21
9.44172e-20
2.19856e-20
1.24829e-19
2.93528e-20
5.29528e-20
1.56089e-20
1.08768e-20
4.21552e-21
1.59926e-21
7.15776e-22
1.8235e-22
8.71058e-23
1.65098e-23
8.07085e-24
1.2144e-24
5.88884e-25
7.44779e-26
3.45827e-26
4.1682e-27
1.68391e-27
3.26484e-28
7.97718e-29
5.38369e-29
6.1967e-30
1.04069e-29
6.21814e-31
5.70984e-30
8.87659e-32
1.33147e-29
6.23268e-32
5.31883e-28
-6.32909e-30
1.9742e-26
-7.35815e-28
-2.68746e-26
3.6616e-25
6.02219e-27
1.92677e-26
5.25022e-24
5.38824e-24
1.49436e-23
7.78085e-24
8.87994e-23
2.65032e-23
8.41045e-22
1.8842e-22
4.41315e-21
1.05734e-21
5.658e-21
1.34647e-21
2.2609e-21
6.93882e-22
4.46151e-22
1.81765e-22
6.34656e-23
3.00712e-23
6.99475e-24
3.56725e-24
6.11298e-25
3.21997e-25
4.33417e-26
2.28729e-26
2.56356e-27
1.3079e-27
1.40908e-28
6.24359e-29
1.13721e-29
3.02495e-30
1.75585e-30
2.46347e-31
4.26726e-31
2.21919e-32
3.40876e-31
1.12253e-32
2.06381e-30
3.83904e-32
7.85101e-29
-5.87452e-31
3.78442e-27
-1.38288e-28
-5.52415e-27
7.42974e-26
3.99654e-28
1.14505e-27
3.21215e-25
3.34265e-25
7.62578e-25
4.13174e-25
4.32356e-24
1.32142e-24
3.98331e-23
9.16613e-24
1.93164e-22
4.8672e-23
2.40913e-22
5.91543e-23
9.03367e-23
2.94874e-23
1.71291e-23
7.48151e-24
2.3536e-24
1.20286e-24
2.50062e-25
1.38603e-25
2.10263e-26
1.21367e-26
1.43148e-27
8.35138e-28
8.13632e-29
4.62319e-29
4.39927e-30
2.15394e-30
3.63859e-31
1.06984e-31
5.32677e-32
8.75384e-33
2.75948e-32
9.5456e-34
3.40537e-32
2.29567e-33
5.38274e-31
2.28939e-32
1.85184e-29
1.14746e-31
8.80906e-28
-2.58038e-29
-1.08954e-27
1.61179e-26
2.43836e-29
6.42524e-29
1.80244e-26
1.97338e-26
3.59129e-26
2.10342e-26
1.97636e-25
6.34512e-26
1.77415e-24
4.29265e-25
7.94365e-24
2.15758e-24
9.66344e-24
2.50381e-24
3.38967e-24
1.20573e-24
6.16999e-25
2.95803e-25
8.16813e-26
4.60914e-26
8.33676e-27
5.14043e-27
6.71573e-28
4.34765e-28
4.36808e-29
2.88311e-29
2.3749e-30
1.5363e-30
1.26547e-31
6.96238e-32
1.05153e-32
3.55758e-33
1.73898e-33
2.74447e-34
1.18255e-33
7.29247e-35
8.67342e-33
7.62553e-34
1.74669e-31
1.23979e-32
5.49263e-30
1.49126e-31
2.15099e-28