/*--------------------------------*- C++ -*----------------------------------*\
  =========                 |
  \\      /  F ield         | OpenFOAM: The Open Source CFD Toolbox
   \\    /   O peration     | Website:  https://openfoam.org
    \\  /    A nd           | Version:  13
     \\/     M anipulation  |
\*---------------------------------------------------------------------------*/
FoamFile
{
    format      ascii;
    class       volScalarField;
    location    "0.9";
    object      p;
}
// * * * * * * * * * * * * * * * * * * * * * * * * * * * * * * * * * * * * * //

dimensions      [1 -1 -2 0 0 0 0];

internalField   nonuniform List<scalar> 
2268
(
948.295
936.781
917.29
892.061
864.247
834.233
802.487
771.111
744.156
724.902
714.453
711.908
714.945
720.552
724.4
723.507
718.96
712.973
711.214
717.469
726.924
736.337
742.286
892.454
880.453
859.446
832.717
804.491
775.134
743.18
711.147
683.672
664.185
653.882
651.775
655.379
661.762
667.454
668.608
662.194
652.071
650.038
657.893
667.256
675.878
683.239
837.336
824.457
801.805
773.232
744.916
715.907
683.366
650.079
621.414
601.35
591.272
590.084
595.03
602.913
610.67
613.715
606.272
595.058
591.866
597.491
606.896
615.763
625.212
782.657
768.787
744.685
714.041
685.089
656.584
623.232
587.954
557.393
536.407
526.736
526.992
533.943
543.938
553.636
558.561
552.317
540.194
532.59
534.919
544.801
556.158
568.366
728.738
713.971
688.754
655.937
626.273
598.066
563.135
524.815
491.472
469.077
460.086
462.458
472.196
485.126
497.71
505.102
501.476
485.034
470.842
469.927
481.645
497.192
513.353
676.637
660.803
634.842
600.124
569.667
541.036
503.235
460.601
423.503
398.98
391.04
396.377
409.801
426.495
442.901
453.111
449.074
426.665
404.911
401.765
417.493
439.407
460.59
627.147
610.001
583.661
547.859
516.591
486.11
443.791
394.883
353.078
324.525
318.369
328.095
346.501
367.979
389.34
402.72
398.059
365.111
333.734
328.591
350.455
383.35
410.543
580.929
562.459
535.415
499.218
467.696
433.292
384.891
327.014
280.927
258.96
243.012
257.959
282.179
309.454
337.863
356.48
353.483
308.573
260.275
249.448
281.332
329.465
363.74
696.456
643.857
619.751
634.773
600.007
511.632
488.17
487.198
458.262
444.448
450.88
464.5
474.896
449.671
374.006
342.059
385.93
426.581
444.609
643.759
575.815
543.59
561.818
526.854
432.965
417.252
425.927
406.782
394.64
401.237
418.65
429.404
398.689
313.69
277.051
327.181
375.473
395.402
585.907
500.683
467.735
494.041
471.912
392.228
356.046
365.759
356.897
348.004
350.407
351.426
358.239
333.894
254.177
211.675
262.823
340.374
360.485
521.638
429.229
403.427
438.515
429.763
362.98
310.288
302.514
289.864
282.07
269.209
257.74
268.606
260.992
198.327
158.676
219.006
313.328
333.754
458.074
365.3
347.796
391.352
400.066
349.234
255.486
219.246
211.967
222.18
205.242
162.752
163.94
177.629
145.145
116.641
183.607
286.468
305.541
403.32
314.311
297.483
349.621
364.818
310.952
205.327
159.162
152.51
167.053
136.35
54.7504
44.5981
74.0605
87.8389
85.5679
151.171
260.667
279.625
359.219
274.356
252.586
310.829
323.313
252.991
168.101
124.167
102.137
105.013
62.1895
19.0348
19.01
25.7309
35.1847
47.3394
118.085
236.364
256.04
323.152
240.463
214.322
266.72
263.54
188.357
139.947
104.256
77.5778
66.1066
20.2799
13.7436
13.458
14.9148
14.9955
12.6782
84.0505
212.68
237.895
510.259
491.984
465.965
435.89
398.733
353.221
292.341
216.153
140.245
125.462
126.845
154.5
183.558
218.289
259.97
291.024
302.941
240.273
171.765
153.583
178.036
250.834
300.972
444.977
418.984
385.791
345.689
304.075
259.033
175.142
86.9107
66.4523
64.1981
62.1581
57.1649
50.4723
97.9362
180.933
249.674
206.037
150.947
108.92
92.2654
107.117
156.145
232.038
364.656
331.051
314.921
274.429
199.813
113.977
62.6415
59.5293
60.0998
59.0268
56.529
50.5116
47.7614
49.6445
63.394
112.409
129.279
103.492
75.7339
64.8262
88.3077
128.35
201.23
346.22
293.854
264.758
192.151
122.886
99.943
80.4513
61.6044
55.6385
54.5844
51.1997
44.5901
40.2705
37.0818
38.2018
45.782
57.9228
44.9577
30.9828
37.2888
54.9253
74.7344
80.0363
410.324
304.957
208.159
99.9149
49.7371
37.0197
39.2453
43.8172
47.7798
49.0615
40.0422
36.6797
34.6227
30.9784
27.6133
26.809
28.218
4.00996
-6.26352
10.7848
20.5088
26.4989
31.8406
480.832
228.802
57.715
22.6903
12.0291
6.20293
6.57543
8.72581
9.48841
11.6705
17.242
26.0834
22.6936
20.3295
15.8293
15.2591
17.2951
6.27393
8.15119
11.0993
15.4427
19.4108
23.3751
368.127
83.9208
17.5793
6.17984
3.87148
2.7805
2.01672
1.35746
0.905655
1.47162
3.736
2.25036
-5.53161
4.92997
7.66646
7.06711
4.83542
0.711964
3.4799
10.6188
13.1917
15.185
16.8523
148.331
20.6292
6.26294
3.27077
2.26184
1.63961
1.17977
0.773128
0.526646
0.539323
0.208691
-1.17409
-2.04528
0.905504
4.33704
4.41431
3.7787
2.75984
3.68193
9.01844
11.2563
10.0329
6.6123
26.0115
4.34121
2.47396
1.82328
1.2577
0.747493
0.373691
0.114248
0.020758
0.0585713
0.0882072
0.0445877
0.213086
1.35259
3.03728
3.2979
3.01449
2.92286
3.1694
4.04751
7.30671
7.54229
9.59838
11.2528
1.24791
1.0947
0.684719
0.319489
-0.00155473
-0.238898
-0.36594
-0.369809
-0.261298
-0.0598007
0.254829
0.770237
1.51835
2.03886
2.1637
2.24355
2.34424
2.48982
2.69617
3.01662
5.08174
5.59561
5.70047
0.305589
0.319184
-0.100062
-0.305072
-0.451095
-0.540618
-0.558474
-0.496582
-0.357894
-0.118813
0.197251
0.576056
0.96478
1.29217
1.53799
1.75815
1.93924
2.09335
2.17785
2.27066
2.45448
2.54695
1.29955
-0.569502
-0.328093
-0.640215
-0.704466
-0.750681
-0.766423
-0.73667
-0.643732
-0.480911
-0.238989
0.0783655
0.427722
0.74044
1.00319
1.23951
1.45492
1.63069
1.80369
1.98717
2.13235
2.30373
2.49483
0.0471177
-1.26349
-0.922878
-1.14774
-1.12056
-1.14183
-1.14087
-1.0859
-0.940738
-0.706673
-0.410298
-0.0715718
0.271803
0.584869
0.855151
1.08709
1.29205
1.46682
1.63191
1.79754
1.97645
2.1921
2.38726
0.608409
-2.23491
-1.47306
-1.80731
-1.70786
-1.78562
-1.81488
-1.74273
-1.50909
-1.14472
-0.722321
-0.295532
0.100904
0.447522
0.740572
0.980481
1.19478
1.38341
1.55571
1.70837
1.87999
2.08183
2.26009
3.78042
-3.86989
-2.20227
-2.64892
-2.50551
-2.72523
-2.86599
-2.80178
-2.42408
-1.84199
-1.19502
-0.605168
-0.107814
0.301135
0.633568
0.899164
1.12881
1.32645
1.50313
1.66708
1.8287
2.00194
2.17201
26.4286
-3.94498
-3.48941
-3.50244
-3.40367
-3.88133
-4.31889
-4.38735
-3.86694
-2.93732
-1.88183
-0.993846
-0.327628
0.170437
0.547346
0.84152
1.08441
1.28991
1.46973
1.63374
1.79119
1.94875
2.10367
30.2583
-1.65311
-4.11519
-3.7919
-4.08013
-5.037
-6.04902
-6.47575
-5.87021
-4.38265
-2.70329
-1.38418
-0.502949
0.0915748
0.507366
0.820341
1.06832
1.27363
1.45091
1.61041
1.75974
1.90444
2.04542
14.9446
2.83785
-2.52935
-3.55961
-4.37586
-5.85378
-7.51968
-8.34852
-7.75083
-5.59376
-3.27286
-1.57099
-0.553738
0.10459
0.538087
0.848751
1.08774
1.28216
1.44809
1.59609
1.73329
1.86401
1.98935
9.70111
6.37695
0.745725
-2.57449
-4.26296
-6.12853
-7.95267
-8.89593
-8.27193
-5.92467
-3.26877
-1.41859
-0.365576
0.256004
0.653421
0.93223
1.1442
1.31593
1.46243
1.59297
1.71348
1.82761
1.93639
7.31751
6.40727
3.35003
-0.683939
-3.30649
-5.34672
-6.96542
-7.65818
-6.90818
-4.83394
-2.46394
-0.838887
0.0410208
0.533135
0.844162
1.06313
1.23142
1.36997
1.49021
1.59885
1.70003
1.79612
1.88778
5.68171
5.24981
3.46089
0.943039
-1.47071
-3.35862
-4.5066
-4.84555
-4.11132
-2.61443
-1.0081
0.0335887
0.583422
0.885832
1.07933
1.2213
1.33597
1.43511
1.52502
1.6092
1.68963
1.76728
1.8422
4.24547
3.83896
2.62346
1.18218
-0.0641991
-1.00311
-1.42138
-1.40935
-0.958398
-0.209931
0.496177
0.912069
1.12307
1.23776
1.31495
1.38012
1.44096
1.50031
1.5595
1.61896
1.67867
1.73832
1.79725
3.19403
2.78723
1.90481
0.983097
0.456633
0.442944
0.856149
1.19028
1.3744
1.50398
1.57703
1.56644
1.54509
1.52404
1.51271
1.51587
1.53102
1.55535
1.58677
1.62347
1.66397
1.70695
1.75119
2.65244
2.30772
1.64937
0.993497
0.836663
1.20036
1.89036
2.35633
2.44097
2.3079
2.0994
1.93962
1.8121
1.71725
1.6528
1.61432
1.59598
1.59296
1.60162
1.61902
1.64285
1.6712
1.70252
2.30414
2.09286
1.70426
1.35921
1.32571
1.69786
2.25873
2.64477
2.69188
2.51791
2.2944
2.09939
1.94482
1.82286
1.73323
1.6712
1.6315
1.60938
1.60097
1.60315
1.61335
1.62947
1.64981
2.10825
2.0026
1.82977
1.70569
1.75124
2.01306
2.35396
2.57634
2.58955
2.46549
2.29575
2.126
1.97719
1.85659
1.76083
1.68879
1.63763
1.60371
1.58367
1.57468
1.57437
1.58072
1.59206
1.9734
1.92425
1.86263
1.84888
1.92663
2.09691
2.2859
2.40129
2.40717
2.32815
2.20529
2.07136
1.9452
1.83524
1.74572
1.67239
1.61706
1.57709
1.54997
1.53345
1.52552
1.52442
1.52869
1.85907
1.83811
1.82304
1.84408
1.91476
2.02977
2.14141
2.20995
2.21425
2.16189
2.07452
1.97275
1.87075
1.77672
1.69439
1.62765
1.57352
1.53178
1.50114
1.48004
1.46697
1.46053
1.45943
1.75199
1.7461
1.74951
1.77741
1.83392
1.90967
1.98021
2.02301
2.02552
1.99006
1.92778
1.85122
1.77061
1.69296
1.62253
1.56203
1.51143
1.47056
1.4389
1.41553
1.39936
1.3893
1.38433
1.64479
1.64613
1.65564
1.68211
1.72395
1.77412
1.81905
1.8458
1.84659
1.82149
1.77622
1.71847
1.65531
1.59221
1.53298
1.48002
1.43434
1.3961
1.36519
1.34122
1.32349
1.31122
1.30363
1.5332
1.53732
1.54769
1.56932
1.59928
1.6326
1.66148
1.67803
1.67722
1.65846
1.62477
1.5808
1.53133
1.48043
1.43121
1.3858
1.34545
1.3109
1.28179
1.2584
1.24028
1.22691
1.21773
1.41621
1.42065
1.42997
1.44627
1.46714
1.48929
1.50782
1.51771
1.51566
1.501
1.47533
1.44146
1.40257
1.36161
1.32102
1.28261
1.24758
1.2166
1.1903
1.16834
1.15069
1.13707
1.12709
1.29368
1.29792
1.30537
1.31699
1.33122
1.34583
1.35754
1.36306
1.3602
1.34837
1.3284
1.302
1.27128
1.23835
1.20506
1.17289
1.14295
1.11595
1.09239
1.07228
1.05566
1.0424
1.03224
1.16654
1.17024
1.17577
1.18375
1.19325
1.20275
1.20997
1.21267
1.20939
1.19964
1.18386
1.1631
1.13874
1.11228
1.08511
1.05842
1.03313
1.00991
0.989199
0.97124
0.956039
0.943569
0.933698
1.0357
1.03873
1.04264
1.04792
1.05414
1.0602
1.06447
1.0654
1.06202
1.05394
1.04137
1.02496
1.00563
0.984429
0.962396
0.940448
0.919347
0.899676
0.881845
0.866118
0.85255
0.841171
0.831921
0.901997
0.904389
0.907023
0.910399
0.914375
0.918157
0.920522
0.920428
0.917191
0.910521
0.900511
0.887557
0.872279
0.855411
0.83771
0.819879
0.802526
0.786141
0.771083
0.757591
0.745788
0.735688
0.727283
0.766125
0.767986
0.76968
0.771739
0.774227
0.776518
0.777711
0.77709
0.774182
0.768769
0.760881
0.750761
0.738821
0.725572
0.711561
0.697318
0.683317
0.66995
0.65752
0.646238
0.636234
0.627516
0.620103
0.628652
0.630113
0.631132
0.632314
0.633836
0.635181
0.635694
0.634891
0.632441
0.628181
0.622111
0.614377
0.605248
0.595077
0.584252
0.573164
0.562169
0.551573
0.541616
0.532472
0.524246
0.517006
0.510698
0.490032
0.491217
0.491756
0.492369
0.493279
0.494045
0.494211
0.493451
0.491537
0.488351
0.483878
0.4782
0.471492
0.463989
0.455959
0.447679
0.439407
0.431368
0.423745
0.416674
0.410246
0.404542
0.399414
0.350556
0.351543
0.351764
0.352034
0.352564
0.352988
0.353017
0.352436
0.351095
0.348913
0.34587
0.342009
0.337436
0.3323
0.326774
0.32104
0.315274
0.30963
0.304235
0.299184
0.294537
0.290306
0.28658
0.210667
0.211473
0.211425
0.211479
0.21177
0.211994
0.211998
0.211653
0.210876
0.209621
0.207868
0.20564
0.20299
0.2
0.196767
0.193395
0.189984
0.186627
0.183399
0.180357
0.177533
0.174938
0.172637
0.0697524
0.0703086
0.0703923
0.0704272
0.0705183
0.0705958
0.0706364
0.070568
0.0703654
0.0700113
0.0694934
0.0688159
0.0679929
0.0670482
0.0660123
0.0649189
0.0638021
0.0626939
0.0616231
0.0606141
0.059686
0.0588468
0.0580454
323.068
324.593
317.092
303.462
259.465
246.995
218.448
184.755
197.06
172.396
126.313
74.859
86.7463
83.893
59.6519
19.9574
35.9835
37.8272
34.1917
3.25485
24.4756
23.5918
18.8297
7.17317
16.8513
15.9504
12.8655
5.8072
13.0964
15.368
15.6722
16.9388
14.8149
18.583
22.3296
26.6165
4.4035
7.10436
11.8384
14.1546
2.67937
2.72104
2.71822
2.83224
2.59983
2.6495
2.72592
2.82321
2.517
2.59699
2.66827
2.73077
2.39397
2.48931
2.57746
2.64665
2.29253
2.38004
2.46892
2.54165
2.21628
2.28978
2.36409
2.43297
2.14693
2.21078
2.27195
2.32945
2.07783
2.13269
2.18468
2.2336
2.01227
2.05906
2.10346
2.14542
1.95161
1.99109
2.0288
2.06461
1.89467
1.92728
1.95868
1.98877
1.83919
1.86542
1.89095
1.91568
1.78359
1.80409
1.82431
1.84413
1.72652
1.74198
1.75748
1.77292
1.66664
1.67776
1.68918
1.70079
1.60292
1.61041
1.61838
1.62675
1.53471
1.53924
1.54437
1.55003
1.46166
1.46384
1.46668
1.47013
1.3837
1.38405
1.38511
1.3868
1.30092
1.29993
1.29962
1.29995
1.2136
1.21165
1.21035
1.20966
1.12209
1.11952
1.11755
1.11615
1.02681
1.0239
1.02152
1.01965
0.92819
0.925147
0.922567
0.920435
0.826581
0.823568
0.820943
0.8187
0.722287
0.719418
0.716864
0.714624
0.615576
0.612934
0.610543
0.608401
0.506743
0.504402
0.502253
0.500294
0.396128
0.394158
0.392322
0.390621
0.284079
0.28255
0.281096
0.279717
0.171018
0.169988
0.168966
0.167949
0.0573321
0.0568042
0.0562238
0.055589
269.566
196.514
173.507
189.168
148.39
107.006
111.476
85.3526
59.9756
22.5824
11.7514
9.48616
8.83373
8.79647
7.85754
5.3201
47.2338
170.805
225.722
138.792
102.138
114.929
107.821
52.4963
62.732
83.8971
59.6667
18.0144
8.18542
6.64704
5.58405
5.16841
5.66213
5.66894
4.66705
10.7027
53.3407
158.134
12.1933
-5.87772
41.3449
40.0007
23.477
34.9663
39.1674
21.4283
6.25637
5.11692
4.28488
3.22544
3.23333
4.20789
4.55167
4.55318
6.7792
25.6447
76.6909
-43.3846
-57.7354
-13.2237
7.59062
7.64245
12.6996
11.6559
7.83369
6.03155
4.70223
3.36189
2.48949
2.69467
3.54526
3.90014
4.36895
5.40432
10.7937
33.3946
-51.469
-55.4269
-12.4194
11.4338
6.82061
7.40208
7.23358
6.80574
6.36254
5.01896
3.44922
2.69914
2.7584
3.18337
3.62915
3.74788
4.72397
3.5846
17.53
-26.3339
-12.1357
24.6655
14.2265
9.5077
7.63219
6.78341
6.5537
6.35778
5.31809
3.87684
2.44269
1.8806
2.07099
2.86017
3.08692
4.40538
2.55665
10.5507
-2.78542
46.6714
75.5075
15.8837
10.4919
7.91671
6.35966
5.57298
5.25572
4.36924
3.04708
1.41685
0.919705
1.46519
2.35556
2.81051
3.49559
4.12236
5.86676
23.6514
85.3382
118.282
15.0737
10.92
7.6568
5.16962
3.90781
3.87216
3.59454
2.75621
1.66185
1.14052
1.6162
2.96137
4.09541
2.25768
4.37959
4.43786
39.1364
88.2579
134.9
16.5601
11.9735
7.38956
4.78406
3.18494
3.2511
3.31268
3.02264
2.1448
1.73305
2.36459
4.5245
5.54459
2.17609
5.34139
5.62987
20.4648
60.3842
107.198
103.128
-4.04012
5.80459
4.87144
4.35635
4.10118
3.71328
3.27535
2.53817
2.09098
2.85661
2.22662
7.01886
5.19715
5.35057
5.7442
3.87784
19.2858
52.3464
93.6422
45.9022
8.01042
6.8937
7.5345
6.64605
3.45951
-7.5103
-12.12
-10.3862
-5.19762
2.25236
8.03169
4.82995
4.86344
5.29426
2.94356
2.87492
14.6024
29.0425
21.7089
5.17604
10.9431
12.5522
8.3054
-4.08282
-4.28171
-7.87745
-2.60893
13.9229
9.3218
4.21207
4.25551
4.51853
4.80425
2.82979
2.93342
3.02224
10.8354
2.37978
11.0477
13.4931
4.02442
34.4535
30.3162
26.4554
23.384
19.2009
5.63971
3.60861
3.87316
4.01782
4.23689
4.37181
2.75074
2.87562
2.94182
2.88881
15.3594
19.5765
62.0831
54.8554
10.1884
3.26711
3.29998
3.27569
3.33438
3.44563
3.50631
3.66825
3.84219
3.98617
4.07258
2.64608
2.75674
2.82789
2.85009
2.842
12.8729
23.9094
5.82637
2.73065
3.06628
3.15242
3.17699
3.23478
3.31151
3.42742
3.50838
3.67245
3.76871
3.82774
2.53144
2.63298
2.7015
2.74416
2.79967
2.91109
2.9605
2.55962
2.76057
2.91919
3.01227
3.07803
3.14164
3.20283
3.29517
3.35986
3.48764
3.56958
3.60907
2.41748
2.51098
2.57925
2.62767
2.67597
2.66872
2.78239
2.67804
2.71525
2.81609
2.89453
2.95493
3.01462
3.07616
3.1555
3.21737
3.29949
3.38006
3.40891
2.30981
2.39578
2.46243
2.51541
2.56559
2.6135
2.65616
2.63243
2.65431
2.71565
2.77532
2.83112
2.88915
2.94838
3.01502
3.07237
3.12958
3.19446
3.21946
2.21156
2.2894
2.35284
2.40587
2.45338
2.49348
2.52997
2.54339
2.56724
2.61043
2.65907
2.70816
2.75999
2.81454
2.87331
2.9265
2.96991
3.02321
3.04001
2.12153
2.19064
2.24904
2.29914
2.3435
2.38232
2.41585
2.44052
2.46725
2.50218
2.54162
2.58322
2.62872
2.6782
2.73015
2.77921
2.80926
2.86555
2.86601
2.03698
2.09704
2.14927
2.19504
2.23587
2.27223
2.30434
2.33213
2.3596
2.38986
2.42221
2.45627
2.4944
2.53739
2.5822
2.62527
2.63913
2.70157
2.67903
1.95574
2.00694
2.05267
2.09362
2.13068
2.16432
2.19478
2.22249
2.24898
2.27523
2.30058
2.32576
2.35482
2.38978
2.42623
2.45969
2.44846
2.51093
2.4598
1.87667
1.91946
1.95875
1.99475
2.02791
2.05852
2.08676
2.11284
2.13716
2.15894
2.17603
2.18996
2.20787
2.23385
2.26165
2.28446
2.24773
2.27809
2.24536
1.79867
1.83371
1.86682
1.89791
1.92712
1.95452
1.98013
2.00386
2.02534
2.04161
2.0483
2.04851
2.05451
2.07281
2.0944
2.11199
2.06801
2.0462
2.0744
1.72056
1.74858
1.77596
1.80237
1.82772
1.8519
1.87477
1.89596
1.91439
1.92435
1.91941
1.90579
1.90219
1.91638
1.9373
1.95605
1.9284
1.85854
1.94712
1.64137
1.66319
1.68537
1.70744
1.72913
1.75024
1.7705
1.78945
1.80534
1.81012
1.79617
1.77228
1.76381
1.77811
1.80343
1.83142
1.82656
1.75913
1.84824
1.56033
1.57677
1.59433
1.61244
1.63075
1.64899
1.66693
1.68416
1.69884
1.70256
1.68722
1.66018
1.65303
1.66959
1.70249
1.7392
1.74582
1.7132
1.77777
1.47686
1.48874
1.50225
1.51679
1.532
1.54759
1.56341
1.57923
1.59378
1.60073
1.59077
1.57338
1.57293
1.59338
1.62979
1.66759
1.6654
1.66373
1.71196
1.39063
1.3987
1.40871
1.42009
1.43247
1.44558
1.45931
1.47356
1.48767
1.49945
1.49925
1.49576
1.50463
1.52591
1.55332
1.57851
1.58101
1.59228
1.62746
1.3015
1.30645
1.3135
1.32213
1.33196
1.34274
1.35435
1.3667
1.37958
1.39205
1.39905
1.40452
1.41651
1.43348
1.4509
1.46614
1.47751
1.49314
1.51862
1.20948
1.21194
1.21656
1.22284
1.23044
1.23909
1.2486
1.25881
1.26945
1.28018
1.28878
1.29672
1.308
1.32161
1.33475
1.34793
1.36104
1.37597
1.39464
1.1147
1.11526
1.11793
1.12226
1.12794
1.13468
1.14226
1.1505
1.15905
1.16755
1.1752
1.18224
1.19171
1.2037
1.21618
1.22871
1.24007
1.25206
1.2654
1.01735
1.0165
1.01764
1.02037
1.02441
1.02948
1.03536
1.04192
1.04884
1.05576
1.06263
1.06921
1.07737
1.08754
1.09867
1.10914
1.11786
1.12659
1.13565
0.917592
0.915738
0.915693
0.917113
0.919749
0.923352
0.927753
0.932867
0.93839
0.94403
0.950039
0.956352
0.963461
0.971718
0.980461
0.988679
0.995151
1.00126
1.00709
0.815564
0.813025
0.812064
0.8124
0.813838
0.816159
0.819258
0.823065
0.827298
0.831784
0.836791
0.842221
0.848227
0.854688
0.861371
0.867733
0.872533
0.876755
0.880331
0.711388
0.708419
0.706771
0.70624
0.706685
0.707912
0.70988
0.712508
0.715571
0.718988
0.722937
0.727255
0.732054
0.736994
0.742004
0.746731
0.750208
0.7531
0.755236
0.605231
0.602057
0.599942
0.59876
0.598416
0.598749
0.599765
0.601376
0.603406
0.605811
0.608678
0.611833
0.615368
0.618888
0.622444
0.625713
0.628125
0.630054
0.631331
0.497337
0.494159
0.491783
0.490147
0.489198
0.488827
0.489052
0.489782
0.490862
0.492263
0.494022
0.496008
0.498272
0.500482
0.502748
0.504752
0.506303
0.507495
0.508269
0.388
0.384984
0.382522
0.380596
0.379198
0.378268
0.377803
0.377711
0.377866
0.378266
0.378932
0.379791
0.380851
0.381896
0.38303
0.383988
0.384808
0.385409
0.385858
0.277532
0.274811
0.272385
0.270292
0.26855
0.267126
0.265995
0.265089
0.264347
0.263787
0.263425
0.263229
0.263184
0.26318
0.263293
0.263363
0.263501
0.263589
0.263774
0.166255
0.163905
0.161594
0.159398
0.15734
0.155418
0.153623
0.151935
0.150349
0.148884
0.147552
0.146344
0.145246
0.144234
0.143366
0.142589
0.142037
0.141636
0.141576
0.0544335
0.0525441
0.0504221
0.0481721
0.0458341
0.0434537
0.041051
0.0386358
0.0362459
0.0339089
0.0316309
0.029411
0.0272615
0.0251915
0.0233217
0.0216184
0.0203345
0.0193982
0.019208
)
;

boundaryField
{
    leftWall
    {
        type            calculated;
        value           nonuniform List<scalar> 
50
(
948.295
892.454
837.336
782.657
728.738
676.637
627.147
580.929
510.259
444.977
364.656
346.22
410.324
480.832
368.127
148.331
26.0115
11.2528
5.70047
1.29955
0.0471177
0.608409
3.78042
26.4286
30.2583
14.9446
9.70111
7.31751
5.68171
4.24547
3.19403
2.65244
2.30414
2.10825
1.9734
1.85907
1.75199
1.64479
1.5332
1.41621
1.29368
1.16654
1.0357
0.901997
0.766125
0.628652
0.490032
0.350556
0.210667
0.0697524
)
;
    }
    rightWall
    {
        type            calculated;
        value           nonuniform List<scalar> 
50
(
444.609
395.402
360.485
333.754
305.541
279.625
256.04
237.895
225.722
158.134
76.6909
33.3946
17.53
10.5507
5.86676
4.43786
5.62987
5.7442
5.29426
4.80425
4.37181
4.07258
3.82774
3.60907
3.40891
3.21946
3.04001
2.86601
2.67903
2.4598
2.24536
2.0744
1.94712
1.84824
1.77777
1.71196
1.62746
1.51862
1.39464
1.2654
1.13565
1.00709
0.880331
0.755236
0.631331
0.508269
0.385858
0.263774
0.141576
0.019208
)
;
    }
    lowerWall
    {
        type            calculated;
        value           nonuniform List<scalar> 
62
(
977.725
966.21
946.719
921.49
893.676
863.662
831.916
800.54
773.585
754.332
743.882
741.338
744.374
749.981
753.715
751.987
747.488
742.251
740.449
746.477
755.939
765.642
771.707
742.286
683.239
625.212
568.366
513.353
460.59
410.543
363.74
385.612
386.749
379.023
365.525
696.456
643.759
585.907
521.638
458.074
403.32
359.219
323.152
725.473
672.74
648.711
663.993
629.227
540.852
516.597
515.567
483.109
467.335
471.705
485.322
495.729
470.663
394.857
362.917
410.697
451.764
469.792
)
;
    }
    atmosphere
    {
        type            calculated;
        value           nonuniform List<scalar> 
46
(
0
0
0
0
0
0
0
0
0
0
0
0
0
0
0
0
0
0
0
0
0
0
-1.12284e-07
-9.64527e-05
-0.000258099
-0.000510258
-0.000863302
-0.00168647
-0.00329732
-0.00531265
-0.00754354
-0.00996271
-0.0125018
-0.015158
-0.0179206
-0.020707
-0.0234756
-0.026225
-0.0289631
-0.0316666
-0.034336
-0.0367361
-0.039019
-0.0406978
-0.0420142
-0.0420889
)
;
    }
    defaultFaces
    {
        type            empty;
    }
}


// ************************************************************************* //
