/*--------------------------------*- C++ -*----------------------------------*\
  =========                 |
  \\      /  F ield         | OpenFOAM: The Open Source CFD Toolbox
   \\    /   O peration     | Website:  https://openfoam.org
    \\  /    A nd           | Version:  13
     \\/     M anipulation  |
\*---------------------------------------------------------------------------*/
FoamFile
{
    format      ascii;
    class       volScalarField;
    location    "0.9";
    object      p_rgh;
}
// * * * * * * * * * * * * * * * * * * * * * * * * * * * * * * * * * * * * * //

dimensions      [1 -1 -2 0 0 0 0];

internalField   nonuniform List<scalar> 
2268
(
977.725
966.21
946.719
921.49
893.676
863.662
831.916
800.54
773.585
754.332
743.882
741.338
744.374
749.981
753.715
751.987
747.488
742.251
740.449
746.477
755.939
765.642
771.707
980.742
968.741
947.734
921.005
892.779
863.422
831.469
799.436
771.96
752.473
742.17
740.064
743.667
750.05
754.572
752.732
746.299
737.328
735.506
742.828
752.191
763.446
771.524
984.482
971.604
948.952
920.379
892.063
863.054
830.513
797.226
768.561
748.497
738.419
737.231
742.177
750.059
757.557
756.761
746.459
735.232
732.854
740.992
751.692
762.794
772.354
988.663
974.792
950.69
920.047
891.094
862.589
829.238
793.959
763.399
742.413
732.742
732.998
739.949
749.943
759.641
764.376
756.317
744.015
738.595
740.925
750.807
762.164
774.367
993.602
978.835
953.618
920.802
891.137
862.93
827.999
789.68
756.337
733.941
724.951
727.322
737.06
749.99
762.574
769.965
766.34
749.898
735.706
734.792
746.509
762.056
778.217
1000.36
984.526
958.565
923.847
893.387
864.744
826.936
784.31
747.226
722.703
714.763
720.1
733.524
750.218
766.624
776.834
772.797
750.388
728.634
725.488
741.216
763.13
784.31
1009.73
992.583
966.243
930.44
899.165
868.504
826.041
777.44
735.66
707.107
700.951
710.677
729.083
750.56
771.922
785.302
780.639
747.688
716.301
711.159
733.011
765.928
793.111
1022.37
1003.9
976.855
940.659
909.136
873.912
825.511
768.332
722.198
700.342
684.452
699.399
723.619
750.894
779.304
797.92
794.879
749.828
695.362
681.019
721.172
770.82
805.164
725.473
672.74
648.711
663.993
629.227
540.852
516.597
515.567
483.109
467.335
471.705
485.322
495.729
470.663
394.857
362.917
410.697
451.764
469.792
731.38
663.423
631.111
649.477
614.513
520.625
503.671
502.318
464.808
456.834
472.038
487.237
496.029
469.494
381.67
344.744
402.727
451.022
467.134
731.946
644.724
597.979
624.444
618.009
535.249
481.375
463.514
453.76
466.012
468.414
469.433
476.236
451.946
372.501
330.188
381.892
438.186
456.972
726.063
623.724
555.84
591.374
634.231
545.414
437.274
410.774
449.69
444.226
418.381
417.549
433.79
426.19
363.596
324.085
350.635
444.816
465.241
720.75
609.074
543.756
587.312
661.854
545.758
356.54
313.229
338.649
347.141
330.619
356.433
376.063
389.495
357.394
328.939
385.768
455.522
474.596
723.939
554.014
536.989
589.324
682.213
496.373
227.104
192.141
290.394
367.871
338.953
219.755
176.083
208.568
337.787
344.471
384.742
467.297
504.718
738.11
568.439
568.353
624.415
692.332
420.472
190.744
149.032
230.202
344.082
219.778
31.2107
20.3382
29.0609
127.731
350.965
418
510.619
544.377
754.777
666.198
654.597
669.98
680.174
349.057
165.566
130.382
156.224
201.426
49.9542
14.5158
14.3432
16.342
18.6713
183.328
428.165
553.562
575.545
1043.73
1025.45
999.432
969.357
932.2
886.688
825.806
740.768
616.832
556.734
546.562
618.614
698.135
751.756
793.437
824.484
820.746
635.497
445.153
404.297
592.459
784.279
834.419
1068.08
1077.65
1044.45
971.476
940.376
917.694
824.715
354.445
98.1619
90.0971
100.811
192.403
408.023
662.91
816.213
806.543
427.953
233.638
180.549
163.958
198.851
548.522
826.293
655.136
840.42
954.039
1020.74
956.579
663.195
186.65
71.457
67.8707
66.384
63.9095
66.3166
196.656
302.12
328.385
316.479
314.254
200.369
161.053
150.034
174.38
480.559
929.771
682.32
925.959
1068.75
990.286
335.069
137.598
117.125
82.5775
77.6815
63.1437
59.7315
53.1029
48.706
45.873
48.7625
130.862
283.687
273.106
239.504
140.226
450.177
656.324
594.28
856.16
1133.01
1027.53
259.377
90.978
145.586
154.365
158.937
162.899
163.788
134.061
53.378
44.22
40.5757
37.9162
184.877
286.961
263.85
252.48
205.813
67.3339
69.5485
45.3815
1248.65
1052.2
251.835
26.9051
14.1299
27.194
78.2166
130.519
137.51
136.032
139.768
146.662
127.687
56.8009
19.1742
97.4614
262.095
296.338
168.559
25.5376
28.2718
32.4877
36.4681
1204.07
674.046
22.3324
8.27909
5.30376
4.10428
3.30667
2.64681
2.20508
3.09275
69.6668
132.532
119.441
82.2416
9.86027
8.76217
6.71992
14.419
31.9826
24.5937
27.1666
29.3993
64.6351
972.938
86.0257
8.45673
4.83693
3.70186
3.05176
2.58982
2.18346
1.93824
1.95638
1.64731
0.324488
7.07199
16.8343
8.17505
6.18935
5.43053
4.76304
17.4733
85.6343
87.9184
71.0546
297.085
832.851
7.35806
4.19103
3.38368
2.79575
2.28277
1.90875
1.64935
1.55613
1.59543
1.6307
1.63069
1.96485
3.42202
5.49284
5.1729
4.66605
4.64943
5.16771
9.90808
157.076
375.331
397.492
869.613
3.33771
2.79988
2.34932
1.98009
1.6587
1.42133
1.29431
1.29052
1.39916
1.60134
1.92294
2.73476
4.28735
4.74393
4.15771
3.99759
4.14283
4.38049
4.77077
11.111
65.905
92.703
822.729
2.22086
2.11578
1.68616
1.4804
1.33433
1.2448
1.227
1.28904
1.42769
1.66663
1.9827
2.43852
3.287
3.76827
3.5423
3.58279
4.0658
4.87491
4.40114
4.21782
4.37539
4.43643
458.996
1.3811
1.585
1.27054
1.20615
1.15993
1.14419
1.17399
1.26698
1.42979
1.67164
1.98898
2.33833
2.65105
2.9138
3.15013
3.36559
3.83093
4.99408
5.1621
5.27438
4.82632
4.68097
130.731
0.7847
1.11354
0.888092
0.915246
0.893982
0.894935
0.949911
1.09507
1.32913
1.62551
1.96423
2.30762
2.62069
2.89097
3.12292
3.32788
3.50265
3.79483
5.01463
5.44581
5.66146
5.66475
309.604
-0.0701639
0.688087
0.353694
0.453138
0.375387
0.346118
0.418274
0.651917
1.01628
1.43868
1.86547
2.2619
2.60854
2.90165
3.14156
3.35581
3.54442
3.71672
3.86937
4.99094
5.21056
4.51151
400.217
-0.200032
0.0843737
-0.362711
-0.219317
-0.439032
-0.579788
-0.515572
-0.137699
0.444239
1.0912
1.68103
2.17838
2.58738
2.91997
3.18557
3.4152
3.6127
3.78933
3.95328
4.1149
4.28814
4.45822
444.575
5.01242
-1.06802
-1.09096
-0.992274
-1.46994
-1.9071
-1.97591
-1.45383
-0.5251
0.52985
1.4176
2.08376
2.58185
2.95886
3.25313
3.49602
3.70149
3.88113
4.04514
4.20259
4.36027
4.51588
252.998
20.0834
-1.09662
-1.25205
-1.54352
-2.50038
-3.51169
-3.89822
-3.17392
-1.7956
-0.16373
1.15335
2.0337
2.62816
3.04395
3.357
3.60508
3.81029
3.9875
4.14701
4.29633
4.44157
4.58357
26.0113
40.8357
3.23582
-0.867999
-1.71375
-3.19165
-4.85666
-5.31316
-3.96956
-2.03884
-0.475491
1.10502
2.10939
2.76644
3.19986
3.51053
3.74951
3.94394
4.10986
4.25789
4.3951
4.52578
4.65113
13.762
21.9843
13.1534
1.22093
-1.45297
-3.33981
-5.15991
-5.73763
-4.27637
-1.92655
0.190549
1.39123
2.42355
3.04314
3.4404
3.7192
3.93117
4.1029
4.2494
4.37993
4.50045
4.61458
4.72336
10.3534
9.8071
11.5896
6.99034
0.381136
-2.40001
-4.04289
-4.46733
-2.72705
-0.652699
1.42057
2.10921
2.95445
3.44544
3.75634
3.97529
4.14358
4.28214
4.40237
4.51102
4.6122
4.70828
4.79995
8.72693
8.33916
6.66786
6.49901
4.06455
1.11338
-1.35984
-1.02244
0.283104
1.74607
2.72047
3.09048
3.6224
3.92336
4.11671
4.25866
4.37333
4.47247
4.56238
4.64656
4.72699
4.80464
4.87955
7.40814
7.00549
5.80596
4.4339
4.95965
3.9896
3.25852
3.23508
3.61644
4.3649
4.00363
4.08392
4.28683
4.40045
4.47752
4.54267
4.60352
4.66286
4.72205
4.78151
4.84123
4.90087
4.9598
6.48178
6.07504
5.19418
4.28448
4.67018
5.42854
5.73891
5.98399
6.14258
5.8027
4.92934
4.858
4.83336
4.81184
4.80046
4.80362
4.81877
4.8431
4.87451
4.91122
4.95172
4.99469
5.03894
6.06539
5.7207
5.06277
4.40811
4.42922
6.15787
6.86661
7.30765
7.00069
5.84998
5.51815
5.35335
5.22514
5.1302
5.06575
5.02726
5.00892
5.00591
5.01456
5.03196
5.05579
5.08414
5.11546
5.84228
5.63101
5.24261
4.89984
4.87043
5.69198
6.85398
6.9528
6.36779
6.06203
5.83353
5.63765
5.48297
5.36099
5.27136
5.20934
5.16963
5.14751
5.13911
5.14129
5.15149
5.1676
5.18794
5.77158
5.66594
5.49314
5.36977
5.41696
5.68805
6.05648
6.253
6.25977
6.13015
5.95921
5.78935
5.64052
5.51992
5.42416
5.35212
5.30096
5.26704
5.247
5.23801
5.2377
5.24405
5.25539
5.76192
5.71278
5.65116
5.63743
5.71539
5.88685
6.07658
6.19119
6.19639
6.11681
5.99383
5.85989
5.73373
5.62377
5.53425
5.46091
5.40558
5.36561
5.33849
5.32197
5.31404
5.31295
5.31721
5.77279
5.75183
5.73676
5.7578
5.8285
5.94363
6.05534
6.1238
6.12803
6.07562
5.98825
5.88647
5.78447
5.69044
5.60811
5.54137
5.48724
5.4455
5.41485
5.39376
5.38069
5.37425
5.37315
5.7909
5.78501
5.78842
5.81633
5.87283
5.94859
6.01914
6.06194
6.06444
6.02898
5.9667
5.89013
5.80952
5.73187
5.66144
5.60094
5.55034
5.50947
5.47782
5.45445
5.43827
5.42821
5.42325
5.8089
5.81024
5.81975
5.84621
5.88806
5.93823
5.98316
6.00991
6.0107
5.9856
5.94033
5.88258
5.81942
5.75632
5.69709
5.64413
5.59845
5.56021
5.52929
5.50533
5.4876
5.47533
5.46774
5.8225
5.82663
5.83699
5.85862
5.88858
5.9219
5.95078
5.96733
5.96652
5.94776
5.91407
5.87011
5.82064
5.76973
5.72051
5.6751
5.63475
5.6002
5.5711
5.5477
5.52959
5.51621
5.50703
5.83071
5.83515
5.84447
5.86077
5.88164
5.90379
5.92232
5.9322
5.93015
5.9155
5.88982
5.85595
5.81707
5.77611
5.73552
5.6971
5.66208
5.6311
5.6048
5.58284
5.56519
5.55157
5.54158
5.83337
5.83761
5.84506
5.85668
5.87091
5.88552
5.89723
5.90275
5.89989
5.88807
5.86809
5.84169
5.81097
5.77804
5.74475
5.71259
5.68264
5.65564
5.63208
5.61197
5.59536
5.58209
5.57193
5.83142
5.83513
5.84066
5.84863
5.85814
5.86764
5.87485
5.87755
5.87427
5.86453
5.84875
5.82798
5.80362
5.77717
5.75
5.72331
5.69801
5.67479
5.65409
5.63613
5.62093
5.60846
5.59858
5.82578
5.82881
5.83272
5.83801
5.84422
5.85029
5.85455
5.85549
5.8521
5.84402
5.83145
5.81504
5.79571
5.77451
5.75248
5.73053
5.70943
5.68976
5.67193
5.6562
5.64263
5.63125
5.622
5.81727
5.81966
5.8223
5.82567
5.82965
5.83343
5.8358
5.8357
5.83247
5.8258
5.81579
5.80283
5.78755
5.77069
5.75299
5.73515
5.7178
5.70142
5.68636
5.67287
5.66106
5.65096
5.64256
5.8066
5.80846
5.81015
5.81221
5.8147
5.81699
5.81818
5.81756
5.81465
5.80924
5.80135
5.79123
5.77929
5.76604
5.75203
5.73779
5.72379
5.71042
5.69799
5.68671
5.6767
5.66799
5.66057
5.79432
5.79578
5.7968
5.79798
5.7995
5.80085
5.80136
5.80056
5.79811
5.79385
5.78778
5.78004
5.77091
5.76074
5.74992
5.73883
5.72783
5.71724
5.70728
5.69814
5.68991
5.68267
5.67636
5.78089
5.78208
5.78261
5.78323
5.78414
5.7849
5.78507
5.78431
5.7824
5.77921
5.77474
5.76906
5.76235
5.75485
5.74682
5.73854
5.73027
5.72223
5.7146
5.70753
5.70111
5.6954
5.69027
5.76661
5.7676
5.76782
5.76809
5.76862
5.76904
5.76907
5.76849
5.76715
5.76497
5.76192
5.75806
5.75349
5.74835
5.74283
5.73709
5.73133
5.72568
5.72029
5.71524
5.71059
5.70636
5.70263
5.75192
5.75272
5.75267
5.75273
5.75302
5.75324
5.75325
5.7529
5.75212
5.75087
5.74912
5.74689
5.74424
5.74125
5.73801
5.73464
5.73123
5.72788
5.72465
5.72161
5.71878
5.71619
5.71389
5.7362
5.73675
5.73684
5.73687
5.73696
5.73704
5.73708
5.73701
5.73681
5.73645
5.73594
5.73526
5.73444
5.73349
5.73246
5.73136
5.73024
5.72914
5.72807
5.72706
5.72613
5.72529
5.72449
856.081
854.303
844.881
832.379
884.768
845.423
793.281
750.571
928.578
896.625
839.751
673.064
337.944
655.793
872.04
822.033
51.7518
134.037
689.056
895.594
39.6563
47.4304
114.866
624.998
159.053
126.675
116.832
182.063
376.753
382.653
238.454
211.144
411.807
427.464
436.241
430.112
32.9379
122.641
318.884
437.37
4.52737
4.56907
4.58036
4.93128
4.57736
4.61193
4.67216
4.75484
4.62539
4.72417
4.73178
4.77362
4.9238
5.01742
4.90036
4.81156
4.59836
4.9918
5.07889
4.87119
4.62797
4.70122
4.82244
4.90772
4.68497
4.74738
4.80853
4.86603
4.73961
4.79446
4.84645
4.89538
4.79924
4.84603
4.89043
4.93239
4.86377
4.90325
4.94096
4.97677
4.93203
4.96463
4.99604
5.02613
5.00174
5.02798
5.05351
5.07823
5.07133
5.09184
5.11205
5.13188
5.13947
5.15492
5.17042
5.18586
5.20478
5.2159
5.22731
5.23893
5.26625
5.27374
5.28171
5.29008
5.32324
5.32777
5.3329
5.33855
5.37538
5.37756
5.3804
5.38385
5.42261
5.42297
5.42402
5.42571
5.46503
5.46403
5.46373
5.46405
5.5029
5.50095
5.49965
5.49897
5.53659
5.53402
5.53205
5.53064
5.56651
5.56359
5.56121
5.55935
5.59308
5.59003
5.58745
5.58532
5.61666
5.61365
5.61102
5.60878
5.63756
5.63469
5.63214
5.6299
5.65605
5.6534
5.65101
5.64887
5.67241
5.67007
5.66792
5.66596
5.68699
5.68502
5.68318
5.68148
5.70013
5.6986
5.69715
5.69577
5.71227
5.71124
5.71021
5.7092
5.72377
5.72325
5.72267
5.72203
798.89
728.852
705.844
711.091
624.484
232.487
142.436
138.442
176.174
105.714
12.6736
10.3152
9.67037
9.67999
8.96278
22.7857
265.785
512.351
607.393
789.836
726.619
519.748
733.671
496.044
100.14
128.315
179.534
135.854
9.32501
7.67063
6.59452
6.18779
6.69674
6.76552
5.81227
12.0048
69.8835
291.819
464.28
421.723
468.974
628.398
373.225
40.594
103.368
149.53
16.4763
6.34039
5.48335
4.42656
4.43584
5.47636
5.81716
5.8223
8.09211
27.178
79.1135
718.272
556.832
508.53
545.416
160.511
16.5701
33.3148
22.0622
7.50359
6.09221
4.74837
3.87928
4.09413
6.93743
5.36867
5.84103
6.92111
15.8445
59.9603
833.249
819.95
850.219
505.72
11.2254
11.2563
10.0838
8.64427
7.9549
6.59941
5.02793
4.36033
5.608
7.04271
5.31457
5.44372
6.63159
11.9864
58.2017
955.006
964.916
997.429
452.835
13.8993
11.9512
11.0928
10.7335
12.3094
9.13615
11.4263
11.1301
9.02649
5.37749
4.92048
5.12699
6.96843
9.27436
56.1416
783.052
1124.47
1137.63
288.047
15.2669
12.6125
12.7326
15.3681
14.9413
13.9453
7.30441
5.10105
3.62379
4.04978
4.776
28.3005
33.0953
15.3398
51.5318
387.135
1208.99
1262.68
458.314
16.0631
12.7674
14.1045
14.6575
12.9517
7.87495
6.07627
4.85651
4.16163
4.58276
5.95276
159.632
161.745
24.6507
10.0769
433.946
857.76
1355.36
851.027
17.5425
12.9844
10.481
11.2161
7.26915
7.16664
6.67932
5.77271
5.21147
5.80854
28.2248
215.293
205.269
26.7828
7.87814
622.261
915.747
1182.73
1401.26
607.052
13.5363
9.70163
8.94699
8.54137
8.05876
7.91272
13.6245
8.12535
8.19176
212.699
233.874
150.376
12.317
7.84953
35.9928
870.208
1448.37
1489.66
1441.92
171.123
12.5845
12.6968
11.5818
39.6254
304.727
490.082
409.351
365.533
360.155
231.466
22.3212
6.65445
7.08074
4.97429
6.69936
638.489
1522.95
1515.45
1205.19
29.1949
18.6076
140.467
710.294
837.984
834.388
839.657
844.437
246.005
6.1673
6.17051
6.43023
6.71589
4.86945
5.13824
6.67827
768.006
1593.34
1602.49
854.263
936.384
994.247
967.949
792.784
682.017
536.387
72.5809
5.64444
5.90902
6.05412
6.27361
6.40853
4.91314
5.03809
5.13996
9.67442
834.359
1505.18
1538.74
1089.15
377.802
5.53203
5.46378
5.43675
5.49538
5.60663
5.66732
5.82927
6.00326
6.14803
6.23478
4.93253
5.04301
5.11779
5.13917
5.14398
384.415
801.82
166.619
5.0236
5.35276
5.43862
5.46318
5.52097
5.59772
5.71394
5.79495
5.96621
6.05611
6.12892
4.94509
5.04445
5.11289
5.15555
5.21118
5.32264
9.40417
4.97818
5.17226
5.33059
5.42366
5.48943
5.55302
5.61453
5.70772
5.77166
6.17628
6.07323
6.04295
4.9548
5.04781
5.11583
5.16426
5.2128
5.20552
5.31898
5.25823
5.25266
5.35267
5.43112
5.49153
5.5512
5.61312
5.69331
5.75463
6.23036
6.14308
5.96816
4.97159
5.05755
5.1242
5.17719
5.22751
5.27548
5.31794
5.29421
5.31608
5.37743
5.43709
5.49289
5.55092
5.61015
5.67736
5.7343
6.20535
6.06055
5.905
4.99853
5.07637
5.13981
5.19284
5.24035
5.28045
5.31694
5.33037
5.35421
5.3974
5.44604
5.49513
5.54696
5.60151
5.66028
5.71347
6.18854
5.85749
5.8525
5.03369
5.1028
5.16121
5.21131
5.25567
5.29449
5.32801
5.35268
5.37942
5.41434
5.45379
5.49539
5.54089
5.59037
5.64231
5.69137
5.90949
5.79796
5.80869
5.07434
5.1344
5.18663
5.2324
5.27322
5.30959
5.3417
5.36949
5.39695
5.42721
5.45956
5.49363
5.53176
5.57475
5.61956
5.66263
5.67649
5.76169
6.58243
5.11829
5.16949
5.21522
5.25617
5.29323
5.32687
5.35734
5.38505
5.41153
5.43778
5.46315
5.48878
5.51756
5.55236
5.58879
5.62225
5.61803
6.80223
7.13557
5.16441
5.20721
5.2465
5.28249
5.31566
5.34627
5.37451
5.40059
5.42491
5.44669
5.46513
5.48009
5.49758
5.52178
5.5494
5.57221
5.62864
7.44084
6.78105
5.21161
5.24665
5.27976
5.31085
5.34006
5.36746
5.39307
5.4168
5.43828
5.45602
5.46372
5.46393
5.46993
5.48626
5.5074
5.52494
5.62207
7.41034
5.53492
5.2587
5.28671
5.31409
5.34051
5.36585
5.39004
5.4129
5.43409
5.45306
5.46508
5.46012
5.44616
5.44121
5.45527
5.47638
5.4942
5.5858
7.23417
5.53135
5.3047
5.32652
5.3487
5.37077
5.39247
5.41357
5.43383
5.45278
5.47125
5.47613
5.46118
5.43596
5.42749
5.44323
5.46855
5.49476
5.62445
5.43914
5.53866
5.34885
5.3653
5.38286
5.40096
5.41928
5.43752
5.45546
5.47281
5.49003
5.49371
5.47612
5.44907
5.44194
5.46027
5.49203
5.52858
5.74876
5.50853
5.56649
5.39058
5.40246
5.41597
5.43051
5.44572
5.46131
5.47713
5.49311
5.51024
5.51566
5.50489
5.48748
5.48771
5.50937
5.54458
5.58256
5.80018
5.59607
5.62569
5.42955
5.43761
5.44762
5.45901
5.47138
5.4845
5.49823
5.51248
5.52719
5.54176
5.54499
5.53536
5.54461
5.59527
5.74758
5.78775
5.64318
5.63121
5.66638
5.46561
5.47056
5.47761
5.48624
5.49607
5.50685
5.51846
5.53081
5.54369
5.56008
5.61993
5.63002
5.59868
5.65915
5.77445
5.75245
5.6453
5.65725
5.68273
5.49879
5.50125
5.50587
5.51215
5.51975
5.52839
5.53791
5.54812
5.55876
5.56971
5.63673
5.6951
5.70699
5.72322
5.73721
5.64318
5.65035
5.66527
5.68394
5.5292
5.52976
5.53242
5.53676
5.54244
5.54918
5.55676
5.565
5.57355
5.58205
5.59011
5.6801
5.71862
5.72058
5.65634
5.65104
5.65457
5.66655
5.6799
5.55704
5.55619
5.55733
5.56007
5.5641
5.56917
5.57506
5.58162
5.58854
5.59545
5.60232
5.6089
5.65395
5.6454
5.63836
5.64883
5.65755
5.66628
5.67534
5.58248
5.58062
5.58058
5.582
5.58464
5.58824
5.59264
5.59775
5.60328
5.60892
5.61493
5.62124
5.62835
5.6366
5.64535
5.65357
5.66004
5.66615
5.67198
5.60565
5.60311
5.60214
5.60248
5.60392
5.60624
5.60934
5.61315
5.61738
5.62187
5.62687
5.6323
5.63831
5.64477
5.65145
5.65781
5.66261
5.66684
5.67041
5.62666
5.62369
5.62205
5.62152
5.62196
5.62319
5.62516
5.62778
5.63085
5.63426
5.63821
5.64253
5.64733
5.65227
5.65728
5.66201
5.66548
5.66838
5.67051
5.6457
5.64253
5.64041
5.63923
5.63889
5.63922
5.64023
5.64185
5.64388
5.64628
5.64915
5.6523
5.65584
5.65936
5.66291
5.66618
5.6686
5.67052
5.6718
5.663
5.65982
5.65745
5.65581
5.65486
5.65449
5.65472
5.65545
5.65653
5.65793
5.65969
5.66167
5.66394
5.66615
5.66841
5.67042
5.67197
5.67316
5.67393
5.67886
5.67584
5.67338
5.67146
5.67006
5.66913
5.66866
5.66857
5.66873
5.66913
5.66979
5.67065
5.67171
5.67276
5.67389
5.67485
5.67567
5.67627
5.67672
5.69359
5.69086
5.68844
5.68635
5.6846
5.68318
5.68205
5.68114
5.6804
5.67984
5.67948
5.67928
5.67924
5.67923
5.67935
5.67942
5.67955
5.67964
5.67983
5.7075
5.70515
5.70284
5.70065
5.69859
5.69667
5.69487
5.69318
5.6916
5.69013
5.6888
5.68759
5.68649
5.68548
5.68461
5.68384
5.68329
5.68288
5.68282
5.72088
5.71899
5.71686
5.71461
5.71228
5.7099
5.70749
5.70508
5.70269
5.70035
5.69807
5.69585
5.6937
5.69163
5.68976
5.68806
5.68678
5.68584
5.68565
)
;

boundaryField
{
    leftWall
    {
        type            fixedFluxPressure;
        gradient        uniform 0;
        value           nonuniform List<scalar> 
50
(
977.725
980.742
984.482
988.663
993.602
1000.36
1009.73
1022.37
1043.73
1068.08
655.136
682.32
856.16
1248.65
1204.07
972.938
832.851
869.613
822.729
458.996
130.731
309.604
400.217
444.575
252.998
26.0113
13.762
10.3534
8.72693
7.40814
6.48178
6.06539
5.84228
5.77158
5.76192
5.77279
5.7909
5.8089
5.8225
5.83071
5.83337
5.83142
5.82578
5.81727
5.8066
5.79432
5.78089
5.76661
5.75192
5.7362
)
;
    }
    rightWall
    {
        type            fixedFluxPressure;
        gradient        uniform 0;
        value           nonuniform List<scalar> 
50
(
469.792
467.134
456.972
465.241
474.596
504.718
544.377
575.545
607.393
291.819
79.1135
59.9603
58.2017
56.1416
51.5318
10.0769
7.87814
7.84953
7.08074
6.71589
6.40853
6.23478
6.12892
6.04295
5.96816
5.905
5.8525
5.80869
6.58243
7.13557
6.78105
5.53492
5.53135
5.53866
5.56649
5.62569
5.66638
5.68273
5.68394
5.6799
5.67534
5.67198
5.67041
5.67051
5.6718
5.67393
5.67672
5.67983
5.68282
5.68565
)
;
    }
    lowerWall
    {
        type            fixedFluxPressure;
        gradient        uniform 0;
        value           nonuniform List<scalar> 
62
(
977.725
966.21
946.719
921.49
893.676
863.662
831.916
800.54
773.585
754.332
743.882
741.338
744.374
749.981
753.715
751.987
747.488
742.251
740.449
746.477
755.939
765.642
771.707
771.707
771.524
772.354
774.367
778.217
784.31
793.111
805.164
856.081
854.303
844.881
832.379
725.473
731.38
731.946
726.063
720.75
723.939
738.11
754.777
725.473
672.74
648.711
663.993
629.227
540.852
516.597
515.567
483.109
467.335
471.705
485.322
495.729
470.663
394.857
362.917
410.697
451.764
469.792
)
;
    }
    atmosphere
    {
        type            prghTotalPressure;
        rho             rho;
        psi             none;
        gamma           1;
        p0              uniform 0;
        value           nonuniform List<scalar> 
46
(
5.72904
5.72904
5.72904
5.72904
5.72904
5.72904
5.72904
5.72904
5.72904
5.72904
5.72904
5.72904
5.72904
5.72904
5.72904
5.72904
5.72904
5.72904
5.72904
5.72904
5.72904
5.72904
5.72904
5.72894
5.72878
5.72853
5.72818
5.72735
5.72574
5.72373
5.7215
5.71908
5.71654
5.71388
5.71112
5.70833
5.70556
5.70282
5.70008
5.69737
5.6947
5.6923
5.69002
5.68834
5.68703
5.68695
)
;
        rho             rho;
    }
    defaultFaces
    {
        type            empty;
    }
}


// ************************************************************************* //
