/*--------------------------------*- C++ -*----------------------------------*\
  =========                 |
  \\      /  F ield         | OpenFOAM: The Open Source CFD Toolbox
   \\    /   O peration     | Website:  https://openfoam.org
    \\  /    A nd           | Version:  13
     \\/     M anipulation  |
\*---------------------------------------------------------------------------*/
FoamFile
{
    format      ascii;
    class       volScalarField;
    location    "0.9";
    object      rho;
}
// * * * * * * * * * * * * * * * * * * * * * * * * * * * * * * * * * * * * * //

dimensions      [1 -3 0 0 0 0 0];

internalField   nonuniform List<scalar> 
2268
(
1000
1000
1000
1000
1000
1000
1000
1000
1000
1000
1000
1000
1000
999.998
996.127
967.77
969.399
994.83
993.373
985.701
985.923
995.762
999.722
1000
1000
1000
1000
1000
1000
1000
1000
1000
1000
1000
1000
1000
999.995
986.745
952.842
952.614
965.678
968.062
962.02
962.02
991.851
999.967
1000
1000
1000
1000
1000
1000
1000
1000
1000
1000
1000
1000
1000
999.992
998.235
972.129
952.696
952.614
958.145
975.22
984.022
999.212
999.967
1000
1000
1000
1000
1000
1000
1000
1000
1000
1000
1000
1000
1000
1000
999.998
999.073
990.266
989.394
1000
1000
1000
1000
999.979
1000
1000
1000
1000
999.999
999.999
1000
999.999
1000
1000
1000
1000
1000
1000
999.999
999.997
999.999
999.999
1000
1000
1000
1000
1000
1000
1000
1000
1000
999.991
999.954
999.934
999.956
1000
1000
1000
1000
1000
1000
1000
1000
1000
1000
999.999
999.999
999.999
1000
999.99
1000
1000
1000
1000
999.98
999.511
999.134
999.935
1000
1000
1000
1000
1000
1000
1000
1000
999.997
999.989
999.962
999.963
999.932
999.992
999.963
1000
1000
1000
1000
1000
998.141
998.141
999.722
999.615
999.869
1000
1000
1000
1000
1000
999.999
999.9
999.58
985.609
977.643
996.375
999.805
999.963
985.982
981.441
984.057
992.88
992.88
992.88
965.957
963.961
844.287
777.694
707.654
707.551
707.868
713.323
708.498
708.721
841.552
855.697
855.726
992.446
992.295
991.311
992.865
992.88
992.88
978.829
865.252
657.243
704.446
801.935
776.849
754.637
801.978
769.981
766.727
855.68
855.709
812.469
992.472
978.896
885.125
886.207
992.865
971.959
851.725
664.34
658.275
801.97
801.97
801.969
801.9
802.276
804.122
805.408
809.186
664.724
655.72
992.327
944.122
739.849
742.014
992.534
885.577
616.422
525.523
775.835
787.147
724.113
775.748
801.843
801.909
802.253
802.933
638.954
638.272
638.266
991.737
920.371
739.849
739.849
988.386
741.978
381.53
354.832
478.291
471.79
473.365
731.246
800.871
799.905
801.35
801.533
763.261
638.267
638.27
990.413
740.457
739.849
740.457
980.451
572.776
67.2695
101.873
425.931
620.338
625.851
509.709
406.166
415.502
772.104
799.768
721.513
638.291
695.325
990.352
768.681
825.358
819.659
964.548
437.764
59.1843
64.9923
334.739
624.884
411.908
31.8259
3.47156
8.70404
241.9
793.622
783.922
716.855
753.664
977.764
964.422
997.359
913.509
943.804
364.035
58.0347
59.1843
178.159
306.539
67.2214
1.74916
2.00523
3.23312
8.32696
386.574
779.526
772.204
764.883
1000
1000
1000
1000
1000
1000
999.995
983.407
893.377
808.431
786.773
869.997
964.59
1000
1000
999.986
970.641
740.86
512.473
469.971
776.848
999.959
999.963
946.014
1000
1000
950.089
966.051
999.998
986.202
406.178
48.1424
39.3207
58.6847
205.322
542.844
857.761
964.501
845.455
336.919
125.544
108.749
108.845
139.273
595.719
902.216
370.579
649.825
815.351
952.098
965.44
700.662
158.204
15.2166
9.91365
9.38588
9.41563
20.1631
189.952
322.094
338.06
260.341
235.981
123.591
108.845
108.703
109.806
449.329
929.432
369.727
695.347
884.431
877.988
233.412
41.4225
40.3427
23.0715
24.2484
9.41566
9.38544
9.36456
9.2795
9.6707
11.6173
93.5926
248.351
250.975
229.384
113.236
434.796
639.776
565.694
431.073
800.635
792.237
154.182
39.8754
104.972
111.308
111.308
111.308
110.928
90.9056
16.1454
9.2795
9.2795
9.9617
152.834
250.176
251.236
250.176
188.57
45.2746
41.6242
13.0926
662.232
710.166
167.426
3.63527
1.81186
18.1045
61.7895
105.045
110.417
107.26
105.677
103.997
90.5554
31.4561
2.88488
70.8983
211.136
250.176
138.349
12.4528
11.0649
11.2787
11.2925
650.726
459.372
3.70001
1.63412
1.11493
1.03047
1.00414
1.00366
1.01151
1.26193
51.3226
101.415
97.2828
60.1818
1.70773
1.31949
1.46696
10.67
22.1874
10.8785
10.8785
11.0649
37.1957
584.898
46.3862
1.55607
1.11088
1.02142
1.00164
1.00016
1.00036
1.00125
1.00513
1.02042
1.06295
6.46693
11.2984
2.72233
1.25904
1.17165
1.42088
9.78229
54.3441
54.3769
43.2831
206.034
525.62
1.96535
1.1186
1.01653
1.00197
1.00017
1.00002
1.00005
1.00023
1.0012
1.00487
1.03327
1.1412
1.34814
1.59969
1.22148
1.07592
1.12478
1.30181
3.8179
97.5682
239.598
252.696
517.017
1.25875
1.02708
1.00264
1.00023
1.00002
1.00001
1.00002
1.00007
1.00015
1.00055
1.00475
1.18329
1.66785
1.62935
1.20105
1.05651
1.08334
1.13881
1.2496
4.8755
36.6357
52.4675
457.614
1.07273
1.00626
1.00045
1.00003
1.00001
1
1.00003
1.00012
1.00009
1.00002
1.00002
1.04316
1.30067
1.38685
1.1226
1.02197
1.19108
1.55794
1.24525
1.09059
1.07589
1.05829
239.555
1.02093
1.0013
1.00008
1.00001
1
1
1.00003
1.00005
1.00005
1.00001
1
1
1
1
1.00001
1.00003
1.15159
1.66983
1.66174
1.64452
1.32031
1.14421
64.1931
1.00608
1.0003
1.00002
1
1
1
1
1
1
1
1
1.00001
1.00001
1.00001
1.00001
1.00001
1.00002
1.06244
1.58026
1.70417
1.70417
1.60993
142.988
1.00174
1.00007
1
1
1
1
1
1.00001
1
1
1
1
1.00001
1.00004
1.00004
1.00001
1.00001
1.00001
1.00001
1.43959
1.44782
1.04184
173.405
1.60523
1.0002
1.00001
1
1
1
1.00001
1.00008
1.00002
1.00001
1
1
1.00002
1.00009
1.00009
1.00009
1.00003
1.00001
1.00001
1.00001
1.00001
1.00001
173.405
3.71463
1.00415
1.00004
1
1
1.00017
1.00002
1.00071
1.00035
1.00012
1.00003
1
1.00001
1.00006
1.00009
1.00009
1.00008
1.00001
1.00001
1.00001
1.00005
1.00034
87.8111
8.56921
1.19002
1.00129
1.00001
1.00002
1.0003
1.01614
1.06296
1.0199
1.00117
1.00038
1.00003
1
1
1.00003
1.00007
1.00003
1
1.00001
1.00001
1.00022
1.00062
4.15762
14.2754
2.16591
1.01121
1.00013
1.00013
1.00047
1.14035
1.42058
1.33555
1.05094
1.00535
1.00051
1.00003
1
1
1
1
1
1.00001
1.00001
1
1
1.45709
5.60012
4.45204
1.36184
1.00826
1.00063
1.00208
1.13324
1.43366
1.43458
1.24125
1.0082
1.00077
1.00006
1
1
1
1
1
1
1
1
1
1.04249
1.16746
2.82936
2.63525
1.26629
1.01187
1.00356
1.0957
1.43575
1.43579
1.33389
1.01234
1.00044
1.00005
1
1
1
1
1
1
1
1
1
1.00259
1.01712
1.05584
1.82921
1.8224
1.47233
1.03602
1.2587
1.44679
1.43562
1.22757
1.00643
1.00053
1.00005
1.00001
1
1
1
1
1
1
1
1
1.00004
1.00126
1.00631
1.02819
1.58854
1.57869
1.47979
1.46857
1.44656
1.44656
1.10906
1.00294
1.00038
1.00004
1
1
1
1
1
1
1
1
1
1
1.00002
1.00049
1.00415
1.28159
1.51642
1.48514
1.45805
1.45029
1.3075
1.01964
1.00116
1.00016
1.00002
1
1
1
1
1
1
1
1
1
1
1.00001
1.00013
1.00049
1.05263
1.45256
1.45805
1.45075
1.33601
1.03784
1.0017
1.00023
1.00003
1
1
1
1
1
1
1
1
1
1
1
1
1.00006
1.00071
1.00186
1.12888
1.29878
1.2176
1.03894
1.00169
1.00028
1.00004
1
1
1
1
1
1
1
1
1
1
1
1
1
1.00001
1.00021
1.00065
1.00318
1.0107
1.00364
1.00188
1.00036
1.00004
1
1
1
1
1
1
1
1
1
1
1
1
1
1
1
1.00001
1.00006
1.00037
1.00057
1.00036
1.00019
1.00004
1
1
1
1
1
1
1
1
1
1
1
1
1
1
1
1
1
1
1.00004
1.00006
1.00003
1.00002
1
1
1
1
1
1
1
1
1
1
1
1
1
1
1
1
1
1
1
1
1
1
1
1
1
1
1
1
1
1
1
1
1
1
1
1
1
1
1
1
1
1
1
1
1
1
1
1
1
1
1
1
1
1
1
1
1
1
1
1
1
1
1
1
1
1
1
1
1
1
1
1
1
1
1
1
1
1
1
1
1
1
1
1
1
1
1
1
1
1
1
1
1
1
1
1
1
1
1
1
1
1
1
1
1
1
1
1
1
1
1
1
1
1
1
1
1
1
1
1
1
1
1
1
1
1
1
1
1
1
1
1
1
1
1
1
1
1
1
1
1
1
1
1
1
1
1
1
1
1
1
1
1
1
1
1
1
1
1
1
1
1
1
1
1
1
1
1
1
1
1
1
1
1
1
1
1
1
1
1
1
1
1
1
1
1
1
1
1
1
1
1
1
1
1
1
1
1
1
1
1
1
1
1
1
1
1
1
1
1
1
1
1
1
1
1
1
1
1
1
1
1
1
1
1
1
1
1
1
1
1
1
1
1
1
1
1
1
1
1
1
1
1
1
1
1
1
1
1
1
1
1
1
1
1
1
1
1
1
1
1
1
1
1
1
1
1
1
1
1
1
1
1
1
1
1
1
1
1
1
1
1
1
1
1
1
1
1
1
1
1
1
1
1
1
1
1
1
1
1
1
1
1
1
1
1
1
1
1
1
1
1
1
1
1
1
1
1
1
1
1
1
1
1
1
1
1
1
1
1
1
1
1
1
1
1
999.147
992.957
989.357
991.472
949.354
908.552
872.729
859.04
933.23
923.931
910.164
763.157
276.33
629.118
893.667
882.322
15.2462
93.024
633.181
862.793
13.0932
20.5604
82.8303
532.865
110.695
86.1914
80.9309
137.203
257.944
260.517
158.021
137.751
258.623
266.368
269.645
262.86
17.1871
69.5915
184.943
254.916
1.03506
1.03507
1.04297
1.17566
1.03503
1.02712
1.01865
1.011
1.03566
1.04489
1.01361
1.00346
1.17068
1.16988
1.07492
1.00181
1.00859
1.14241
1.14163
1.01896
1.00013
1.00002
1.01948
1.02628
1.00057
1.00001
1
1
1
1
1
1
1
1
1
1
1
1
1
1
1
1
1
1
1
1
1
1
1
1
1
1
1
1
1
1
1
1
1
1
1
1
1
1
1
1
1
1
1
1
1
1
1
1
1
1
1
1
1
1
1
1
1
1
1
1
1
1
1
1
1
1
1
1
1
1
1
1
1
1
1
1
1
1
1
1
1
1
1
1
1
1
1
1
1
1
1
1
1
1
1
1
1
1
1
1
1
1
992.233
997.883
997.883
978.361
892.451
235.216
58.0347
99.5185
217.817
155.832
1.72868
1.55411
1.56829
1.65619
2.0718
32.7399
409.681
640.237
715.454
988.434
948.106
614.608
950.185
673.407
56.7932
67.4364
181.986
178.907
1.73017
1.55405
1.53413
1.54766
1.57077
1.66487
1.73872
1.97682
25.1158
202.964
576.746
545.509
545.546
750.644
446.189
7.17947
81.9039
163.425
13.038
1.56084
1.52893
1.53232
1.53409
1.61824
1.61444
1.61908
1.67494
1.95612
3.09059
837.859
676.054
573.954
591.634
168.162
4.25771
23.8258
15.652
1.61932
1.52904
1.52519
1.52883
1.53947
3.73155
1.61545
1.61936
1.66854
5.55612
29.2235
855.424
846.392
834.075
477.919
4.25896
3.72661
2.75582
1.77765
1.53964
1.52812
1.52644
1.60618
2.75524
3.73155
1.62962
1.63968
1.84446
8.1236
39.325
846.392
842.693
838.994
378.293
3.78771
3.72507
3.71683
3.60502
5.13318
3.29303
6.51134
7.4928
6.16323
2.85181
1.77698
1.75954
2.2106
5.79392
39.3215
611.721
838.994
826.789
211.861
3.71702
3.65537
4.96089
7.62485
7.53956
7.45427
3.31404
2.86789
2.10494
2.01192
1.88415
19.8422
23.0414
8.73203
35.5471
257.821
797.014
811.725
314.393
3.64801
3.62498
6.33755
7.62485
6.44016
3.03612
2.35494
2.26599
2.14289
2.1042
2.12181
110.323
113.125
14.3784
3.99977
257.201
501.297
795.074
543.618
3.62791
3.6448
3.71127
5.23198
2.61758
2.51068
2.38217
2.36342
2.26604
2.24359
15.4397
136.642
132.306
13.9681
1.46465
362.48
515.211
647.828
781.904
368.08
4.65707
2.90937
2.76508
2.67447
2.61742
2.79323
6.67762
3.63469
3.21352
126.774
136.642
87.4458
4.19612
1.2681
17.9874
476.597
781.904
781.904
781.904
91.3584
3.18737
2.89137
2.76451
20.2563
174.883
281.281
235.092
207.644
200.459
125.144
9.79673
1.00314
1.0006
1.06287
2.00169
326.538
781.904
781.817
628.08
9.5529
3.16934
69.1726
373.9
440.837
440.837
440.837
434.686
123.878
1.02336
1.0023
1.00057
1.00054
1.0019
1.08302
1.79587
371.927
781.491
781.729
412.992
457.982
471.457
460.572
376.426
323.525
254.045
32.882
1.00001
1.00003
1.00025
1.00045
1.00045
1.00065
1.00068
1.01719
3.14004
378.992
687.461
683.321
478.621
170.113
1.04809
1.0013
1.00003
1
1
1.00001
1.00001
1.00003
1.0004
1.00056
1.00011
1.00004
1.00162
1.00126
1.00691
162.516
340.265
70.3323
1.00296
1.00013
1.00001
1
1
1.00001
1.00015
1.00017
1.00331
1.00053
1.00656
1.00094
1.00004
1
1.00001
1.00005
1.00007
2.67218
1.00298
1.00012
1.00001
1
1
1
1.00013
1.00048
1.00017
1.11498
1.03827
1.00933
1.00029
1.0001
1
1
1.0001
1.00009
1
1.01719
1.00033
1
1
1.00001
1
1.00015
1.00048
1.00027
1.15544
1.08927
1.00894
1
1
1
1
1.00005
1.00008
1
1
1
1
1
1
1
1
1.00021
1.00006
1.15553
1.07676
1.00893
1
1
1
1
1
1
1
1
1
1
1
1
1
1
1
1
1.15488
1.01698
1.00916
1
1
1
1
1
1
1
1
1
1
1
1
1
1
1
1
1.06458
1.00695
1.01048
1
1
1
1
1
1
1
1
1
1
1
1
1
1
1
1
1
1.0075
1.28513
1
1
1
1
1
1
1
1
1
1
1.00001
1.00015
1.00006
1.00001
1
1
1.00222
1.35691
1.47848
1
1
1
1
1
1
1
1
1
1
1.00041
1.00072
1.0006
1.00006
1
1
1.02834
1.5703
1.37957
1
1
1
1
1
1
1
1
1
1.00043
1.00072
1.00072
1.00072
1.00015
1.00002
1
1.04135
1.5717
1.01394
1
1
1
1
1
1
1
1
1.00015
1.00073
1.00073
1.00063
1.00025
1.00021
1.00027
1
1.03371
1.51934
1.01303
1
1
1
1
1
1
1
1
1.0007
1.00073
1.00046
1.0001
1.0001
1.00049
1.00049
1
1.03673
1.00456
1.0074
1
1
1
1
1
1
1
1.00003
1.0007
1.00069
1.0001
1.0001
1.0001
1.00057
1.00027
1.00023
1.0566
1.0018
1.00005
1
1
1
1
1
1
1
1.00004
1.0007
1.00031
1.0001
1.0001
1.00027
1.00058
1.00027
1.00032
1.05648
1.00476
1
1
1
1
1
1
1
1
1
1.00015
1.00084
1.00169
1.00017
1.00026
1.00754
1.03846
1.04217
1.00576
1
1
1
1
1
1
1
1
1
1
1
1.00094
1.01363
1.01474
1.00434
1.01478
1.03829
1.02935
1.00088
1
1
1
1
1
1
1
1
1
1
1
1.00005
1.01367
1.02543
1.02557
1.02618
1.02638
1.00139
1
1
1
1
1
1
1
1
1
1
1
1
1
1.00009
1.01888
1.02547
1.02319
1.00581
1.00177
1
1
1
1
1
1
1
1
1
1
1
1
1
1
1
1.00813
1.004
1
1
1
1
1
1
1
1
1
1
1
1
1
1
1
1
1
1
1
1
1
1
1
1
1
1
1
1
1
1
1
1
1
1
1
1
1
1
1
1
1
1
1
1
1
1
1
1
1
1
1
1
1
1
1
1
1
1
1
1
1
1
1
1
1
1
1
1
1
1
1
1
1
1
1
1
1
1
1
1
1
1
1
1
1
1
1
1
1
1
1
1
1
1
1
1
1
1
1
1
1
1
1
1
1
1
1
1
1
1
1
1
1
1
1
1
1
1
1
1
1
1
1
1
1
1
1
1
1
1
1
1
1
1
1
1
1
1
1
1
1
1
1
1
1
1
1
1
1
1
1
1
1
1
1
1
1
1
1
1
1
1
1
1
1
1
1
1
1
1
1
1
1
1
1
1
)
;

boundaryField
{
    leftWall
    {
        type            calculated;
        value           nonuniform List<scalar> 
50
(
1000
1000
1000
1000
1000
1000
1000
1000
1000
946.014
370.579
369.727
431.073
662.232
650.726
584.898
525.62
517.017
457.614
239.555
64.1931
142.988
173.405
173.405
87.8111
4.15762
1.45709
1.04249
1.00259
1.00004
1
1
1
1
1
1
1
1
1
1
1
1
1
1
1
1
1
1
1
1
)
;
    }
    rightWall
    {
        type            calculated;
        value           nonuniform List<scalar> 
50
(
855.726
812.469
655.72
638.266
638.27
695.325
753.664
764.883
715.454
202.964
3.09059
29.2235
39.325
39.3215
35.5471
3.99977
1.46465
1.2681
1.0006
1.00054
1.00045
1.00056
1.00656
1.00933
1.00894
1.00893
1.00916
1.01048
1.28513
1.47848
1.37957
1.01394
1.01303
1.0074
1.00005
1
1
1
1
1
1
1
1
1
1
1
1
1
1
1
)
;
    }
    lowerWall
    {
        type            calculated;
        value           nonuniform List<scalar> 
62
(
1000
1000
1000
1000
1000
1000
1000
1000
1000
1000
1000
1000
1000
999.998
996.127
967.77
969.399
994.83
993.373
985.701
985.923
995.762
999.722
999.722
999.967
999.967
999.979
1000
999.99
999.963
999.963
999.147
992.957
989.357
991.472
985.982
992.446
992.472
992.327
991.737
990.413
990.352
977.764
985.982
981.441
984.057
992.88
992.88
992.88
965.957
963.961
844.287
777.694
707.654
707.551
707.868
713.323
708.498
708.721
841.552
855.697
855.726
)
;
    }
    atmosphere
    {
        type            calculated;
        value           uniform 1;
    }
    defaultFaces
    {
        type            empty;
    }
}


// ************************************************************************* //
