/*--------------------------------*- C++ -*----------------------------------*\
  =========                 |
  \\      /  F ield         | OpenFOAM: The Open Source CFD Toolbox
   \\    /   O peration     | Website:  https://openfoam.org
    \\  /    A nd           | Version:  13
     \\/     M anipulation  |
\*---------------------------------------------------------------------------*/
FoamFile
{
    format      ascii;
    class       volVectorField;
    location    "0.9";
    object      U;
}
// * * * * * * * * * * * * * * * * * * * * * * * * * * * * * * * * * * * * * //

dimensions      [0 1 -1 0 0 0 0];

internalField   nonuniform List<vector> 
2268
(
(0.00600808 -0.00864118 0)
(-0.00164436 0.000664118 0)
(-0.039597 0.0121693 0)
(-0.100917 0.0171687 0)
(-0.140148 0.00891909 0)
(-0.12866 -0.0033814 0)
(-0.0963726 -0.00610766 0)
(-0.0757847 -0.00295205 0)
(-0.0676957 -9.34251e-05 0)
(-0.0700648 0.00236297 0)
(-0.081405 0.00467246 0)
(-0.101356 0.0057543 0)
(-0.125703 0.00325092 0)
(-0.141726 -0.00435571 0)
(-0.139379 -0.0111933 0)
(-0.137497 -0.000895639 0)
(-0.185283 0.0210264 0)
(-0.270672 0.0226313 0)
(-0.292162 0.000987359 0)
(-0.228061 -0.0198034 0)
(-0.159814 -0.0240277 0)
(-0.0937576 -0.02379 0)
(-0.0290261 -0.0184819 0)
(-0.0284498 0.00683174 0)
(-0.0874756 0.0227254 0)
(-0.149372 0.0357452 0)
(-0.18816 0.0302706 0)
(-0.177839 0.00404615 0)
(-0.139773 -0.0183177 0)
(-0.105794 -0.0201972 0)
(-0.080299 -0.0108336 0)
(-0.0698515 -0.001814 0)
(-0.0700239 0.00501418 0)
(-0.0777575 0.0112735 0)
(-0.0925423 0.0164002 0)
(-0.114722 0.0174642 0)
(-0.144504 0.0119838 0)
(-0.184192 0.00811363 0)
(-0.230816 0.0234711 0)
(-0.269195 0.039239 0)
(-0.266564 0.0219026 0)
(-0.184632 -0.0203282 0)
(-0.113899 -0.0449339 0)
(-0.0771071 -0.0442951 0)
(-0.0471706 -0.0459018 0)
(-0.0108967 -0.0415319 0)
(-0.0418495 0.0417406 0)
(-0.111394 0.0532694 0)
(-0.168277 0.054964 0)
(-0.193679 0.0333442 0)
(-0.182388 -0.00867461 0)
(-0.151546 -0.0374743 0)
(-0.115989 -0.0370096 0)
(-0.089905 -0.0204361 0)
(-0.0767299 -0.00462679 0)
(-0.074119 0.00638941 0)
(-0.0779482 0.0152849 0)
(-0.0854277 0.0227678 0)
(-0.0959893 0.0276048 0)
(-0.112772 0.0290719 0)
(-0.140654 0.0298549 0)
(-0.173658 0.0354151 0)
(-0.181052 0.0292548 0)
(-0.128873 -0.0119874 0)
(-0.0473335 -0.0586694 0)
(-0.0109451 -0.0671172 0)
(0.00822676 -0.0512324 0)
(-0.00341295 -0.0490074 0)
(0.00908406 -0.0456309 0)
(-0.0401038 0.0763647 0)
(-0.0995365 0.0816545 0)
(-0.14992 0.0726659 0)
(-0.178186 0.0392071 0)
(-0.173102 -0.0153389 0)
(-0.144557 -0.0545909 0)
(-0.118281 -0.0524739 0)
(-0.0993259 -0.0296743 0)
(-0.0872625 -0.00840594 0)
(-0.0839175 0.00658886 0)
(-0.0874265 0.0178792 0)
(-0.0950558 0.0262015 0)
(-0.103404 0.0310402 0)
(-0.109811 0.033729 0)
(-0.111607 0.0364473 0)
(-0.102683 0.0359404 0)
(-0.0725468 0.0150115 0)
(-0.0168486 -0.0319441 0)
(0.0259471 -0.0700254 0)
(0.0294365 -0.0713752 0)
(0.0367085 -0.0496119 0)
(0.00912943 -0.0438967 0)
(0.014617 -0.0391012 0)
(-0.0313252 0.104959 0)
(-0.075005 0.10544 0)
(-0.118134 0.0893449 0)
(-0.144778 0.0467955 0)
(-0.137615 -0.0207317 0)
(-0.116177 -0.0662234 0)
(-0.108966 -0.060736 0)
(-0.10374 -0.0350578 0)
(-0.0954141 -0.0107464 0)
(-0.0911617 0.00690363 0)
(-0.0935379 0.021105 0)
(-0.10271 0.0307199 0)
(-0.114259 0.0346399 0)
(-0.12209 0.0340485 0)
(-0.117837 0.0299617 0)
(-0.0921015 0.0187099 0)
(-0.0461939 -0.0119842 0)
(0.00161069 -0.0548787 0)
(0.0304334 -0.0780339 0)
(0.0339801 -0.0704983 0)
(0.0341449 -0.0430523 0)
(0.00210524 -0.0372925 0)
(0.0112071 -0.035912 0)
(-0.0194668 0.125457 0)
(-0.0450771 0.123633 0)
(-0.075938 0.102198 0)
(-0.094112 0.0522954 0)
(-0.0839019 -0.0242649 0)
(-0.0729229 -0.0711883 0)
(-0.0920848 -0.0615424 0)
(-0.0978961 -0.0354146 0)
(-0.0877394 -0.0110633 0)
(-0.0796982 0.00773689 0)
(-0.0807858 0.0258138 0)
(-0.0941442 0.0383787 0)
(-0.113412 0.0416503 0)
(-0.129352 0.036956 0)
(-0.132417 0.0239651 0)
(-0.1131 0.000506422 0)
(-0.0709057 -0.037121 0)
(-0.0154475 -0.0753662 0)
(0.0364006 -0.0913554 0)
(0.0561097 -0.0721146 0)
(0.0447331 -0.0335237 0)
(0.00430342 -0.0300776 0)
(0.00632758 -0.0343747 0)
(-0.00501961 0.133327 0)
(-0.0129111 0.133422 0)
(-0.0307512 0.108903 0)
(-0.0384539 0.056533 0)
(-0.0190798 -0.0217566 0)
(-0.0198308 -0.0681296 0)
(-0.0719776 -0.0537506 0)
(-0.0739511 -0.0359844 0)
(-0.0567214 -0.0155023 0)
(-0.0495468 0.00144733 0)
(-0.0502048 0.0255897 0)
(-0.0637062 0.0440675 0)
(-0.0893355 0.0493311 0)
(-0.118173 0.0433682 0)
(-0.134822 0.0236147 0)
(-0.125629 -0.0114789 0)
(-0.0799948 -0.0648948 0)
(-0.00484733 -0.115935 0)
(0.0616923 -0.122151 0)
(0.0986207 -0.0760595 0)
(0.0811002 -0.0219822 0)
(0.0183994 -0.0177667 0)
(0.00414094 -0.0340724 0)
(0.00963665 0.139125 0)
(0.0201156 0.139488 0)
(0.0193793 0.109945 0)
(0.0398612 0.0440951 0)
(0.0775785 -0.0338781 0)
(0.0235949 -0.0455886 0)
(-0.0564675 -0.0346635 0)
(-0.051683 -0.041816 0)
(-0.0574829 -0.0127983 0)
(-0.0734079 0.0128367 0)
(-0.0721021 0.0415016 0)
(-0.0664974 0.0627751 0)
(-0.0717203 0.0686321 0)
(-0.0959261 0.059258 0)
(-0.124059 0.029424 0)
(-0.127078 -0.0227397 0)
(-0.0813153 -0.0994412 0)
(-0.0201336 -0.13823 0)
(0.0562487 -0.129058 0)
(0.120258 -0.0718454 0)
(0.120263 0.00828401 0)
(0.0354387 0.00318872 0)
(0.000443661 -0.030426 0)
(0.0495152 0.000667365 0)
(-0.240102 0.0578176 0)
(-0.375128 0.0108394 0)
(-0.16316 -0.0678957 0)
(0.0818613 -0.0758776 0)
(0.241863 -0.0411501 0)
(0.267712 -0.0050324 0)
(-0.0995289 0.0725846 0)
(-0.262009 0.0188743 0)
(-0.181474 -0.0226435 0)
(-0.220108 0.00335902 0)
(-0.200866 -0.0181609 0)
(-0.0554309 -0.0406362 0)
(0.163553 -0.0541098 0)
(0.381297 -0.00851538 0)
(0.387102 0.0692961 0)
(0.0959576 0.0749492 0)
(-0.196301 -0.0291105 0)
(-0.0473991 -0.047192 0)
(-0.0965758 0.0787369 0)
(-0.367044 0.123 0)
(-0.326447 -0.017696 0)
(-0.16179 -0.161369 0)
(-0.00842126 -0.148391 0)
(0.0745734 -0.0293533 0)
(-0.0498149 0.126832 0)
(-0.268098 0.128975 0)
(-0.289135 0.0214802 0)
(-0.392616 0.0137317 0)
(-0.40196 0.00362391 0)
(-0.417212 -0.0411174 0)
(-0.339629 -0.0965103 0)
(-0.146218 -0.145246 0)
(0.109341 -0.0923351 0)
(0.38385 0.0626468 0)
(0.319344 0.154435 0)
(0.0288078 0.0775305 0)
(-0.0355635 -0.0700872 0)
(-0.141883 0.166528 0)
(-0.329486 0.158556 0)
(-0.252407 -0.0517496 0)
(-0.177255 -0.20617 0)
(-0.140983 -0.158636 0)
(-0.199019 0.0182345 0)
(-0.286744 0.18182 0)
(-0.444209 0.161034 0)
(-0.643654 0.0811355 0)
(-0.74301 0.0528864 0)
(-0.787557 0.0362265 0)
(-0.797082 -0.0466949 0)
(-0.665438 -0.182703 0)
(-0.47773 -0.268906 0)
(-0.240683 -0.2207 0)
(0.109172 0.0220175 0)
(0.286677 0.193741 0)
(0.141956 0.134094 0)
(0.0323157 -0.0306114 0)
(-0.123858 0.246861 0)
(-0.245146 0.190266 0)
(-0.2027 -0.0536897 0)
(-0.147211 -0.223799 0)
(-0.179023 -0.153749 0)
(-0.267189 0.0357169 0)
(-0.462922 0.264041 0)
(-0.928246 0.290299 0)
(-1.17999 0.146647 0)
(-1.21827 0.0724398 0)
(-1.08617 -0.00220185 0)
(-0.895608 -0.124494 0)
(-0.780158 -0.252295 0)
(-0.691824 -0.350549 0)
(-0.508656 -0.333458 0)
(-0.230108 -0.118735 0)
(0.103564 0.168626 0)
(0.124418 0.147782 0)
(0.0181818 0.00917313 0)
(-0.0779191 0.304702 0)
(-0.142732 0.213649 0)
(-0.1498 -0.0604226 0)
(-0.0954549 -0.234453 0)
(-0.169908 -0.118063 0)
(-0.375654 0.162252 0)
(-1.07264 0.474707 0)
(-1.61855 0.372357 0)
(-1.54258 0.169556 0)
(-1.25748 0.0159606 0)
(-0.922156 -0.0837026 0)
(-0.866313 -0.142006 0)
(-0.942359 -0.252144 0)
(-0.93594 -0.388557 0)
(-0.719988 -0.421175 0)
(-0.437012 -0.221531 0)
(-0.127438 0.063802 0)
(0.0273832 0.132053 0)
(-0.0622847 0.0273398 0)
(-0.0251834 0.333744 0)
(-0.0293064 0.226022 0)
(-0.0724978 -0.0550247 0)
(-0.026365 -0.227989 0)
(-0.154502 -0.0550468 0)
(-0.402833 0.360161 0)
(-1.2572 0.81382 0)
(-1.56316 0.472921 0)
(-1.28134 0.0273447 0)
(-1.04361 -0.173335 0)
(-0.946232 -0.180798 0)
(-1.16221 -0.157568 0)
(-1.43894 -0.282055 0)
(-1.32783 -0.499684 0)
(-0.976791 -0.552949 0)
(-0.613304 -0.325759 0)
(-0.352655 -0.0287528 0)
(-0.110982 0.0944317 0)
(-0.106736 0.00460678 0)
(0.0244391 0.326612 0)
(0.075509 0.237643 0)
(0.0588574 -0.0490434 0)
(0.0671796 -0.198107 0)
(-0.141681 0.0406482 0)
(-0.385035 0.571951 0)
(-1.0724 1.04452 0)
(-1.13984 0.425384 0)
(-0.933513 -0.043378 0)
(-0.927416 -0.166993 0)
(-1.18481 -0.0870562 0)
(-1.9248 0.0613852 0)
(-2.39334 -0.22931 0)
(-1.85722 -0.694982 0)
(-1.34095 -0.767886 0)
(-0.822546 -0.486624 0)
(-0.411517 -0.130659 0)
(-0.17392 0.00730799 0)
(-0.0605405 -0.0473806 0)
(0.0744205 0.279584 0)
(0.16527 0.239414 0)
(0.191932 -0.0270321 0)
(0.168158 -0.161794 0)
(-0.0826166 0.109153 0)
(-0.343859 0.715104 0)
(-0.804509 1.19705 0)
(-0.736824 0.405622 0)
(-0.673155 -0.0324978 0)
(-0.908933 -0.049009 0)
(-1.55724 0.194679 0)
(-2.45283 0.405026 0)
(-2.53073 -0.15974 0)
(-2.32628 -0.827104 0)
(-1.81469 -1.01892 0)
(-1.18058 -0.729395 0)
(-0.505198 -0.259091 0)
(-0.267087 -0.102198 0)
(0.018601 -0.0800116 0)
(0.0479302 0.080654 0)
(0.090274 0.121651 0)
(0.112677 0.0988358 0)
(0.132036 0.0590946 0)
(0.0803072 0.0146421 0)
(-0.03773 0.00889685 0)
(-0.0978952 -0.0213732 0)
(-0.144151 -0.0327667 0)
(-0.207485 -0.0258817 0)
(-0.28718 -0.0217968 0)
(-0.307205 -0.00881651 0)
(-0.261332 0.0193819 0)
(-0.196425 0.0599578 0)
(-0.163422 0.0833194 0)
(-0.172967 0.0444637 0)
(-0.194812 -0.0380614 0)
(-0.208723 -0.0925805 0)
(-0.134204 -0.155351 0)
(0.0309683 -0.20304 0)
(0.124396 -0.128309 0)
(0.12815 0.0141389 0)
(0.0412069 0.0631742 0)
(-0.0638529 -0.00129216 0)
(0.0692664 0.0493842 0)
(0.148109 0.120798 0)
(0.126426 0.0752071 0)
(0.116615 0.0457764 0)
(0.0261286 0.109555 0)
(-0.115041 0.142405 0)
(-0.329272 0.0642853 0)
(-0.431503 0.0282926 0)
(-0.344504 0.165256 0)
(-0.597568 0.109922 0)
(-0.691291 0.0360562 0)
(-0.663393 -0.0404815 0)
(-0.600473 -0.0513357 0)
(-0.522834 0.00695535 0)
(-0.596135 0.0739418 0)
(-0.672148 0.0523028 0)
(-0.526276 -0.192839 0)
(-0.187093 -0.465185 0)
(-0.0318319 -0.395243 0)
(0.0597114 -0.150996 0)
(-0.0670972 0.0944625 0)
(-0.0509791 0.112293 0)
(-0.0742494 0.0168106 0)
(0.0610639 -0.215139 0)
(0.180836 0.027751 0)
(0.0725135 0.119023 0)
(-0.136452 0.20936 0)
(-0.335437 0.278504 0)
(-0.379911 0.255014 0)
(-0.178134 0.142711 0)
(-0.0619311 -0.0426889 0)
(-0.159279 0.381955 0)
(-0.275213 0.373429 0)
(-0.647102 0.104163 0)
(-1.13789 -0.0562145 0)
(-1.25717 0.0210391 0)
(-1.20846 0.175998 0)
(-1.1461 0.155954 0)
(-0.998272 -0.181954 0)
(-0.6702 -0.645324 0)
(-0.510505 -0.644196 0)
(-0.500581 -0.384334 0)
(-0.558391 -0.00761279 0)
(-0.660903 0.229493 0)
(-0.643885 0.119326 0)
(-0.562453 -0.0116747 0)
(-0.0659485 -0.260933 0)
(-0.181068 0.216405 0)
(-0.478739 0.39356 0)
(-0.774211 0.44845 0)
(-0.904478 0.346883 0)
(-0.856341 0.17006 0)
(-1.00315 0.0614987 0)
(-0.953007 0.138182 0)
(-0.823677 0.246406 0)
(-0.299842 0.477515 0)
(-0.206234 0.525803 0)
(-0.242074 0.534169 0)
(-0.565386 0.0544825 0)
(-1.21248 -0.108267 0)
(-1.41343 0.016871 0)
(-0.966807 -0.475281 0)
(-0.793752 -0.769321 0)
(-0.76439 -0.682715 0)
(-0.798717 -0.409003 0)
(-0.931642 0.0355943 0)
(-0.973182 0.19978 0)
(-0.932295 -0.0142709 0)
(-0.871593 -0.248143 0)
(-0.276185 0.0825458 0)
(-0.608853 0.562747 0)
(-0.987232 0.6834 0)
(-1.43669 0.559125 0)
(-1.97322 0.265177 0)
(-1.99071 0.0235669 0)
(-1.88556 -0.125687 0)
(-1.68417 -0.16902 0)
(-1.44513 -0.132603 0)
(-1.18514 -0.0793534 0)
(-0.916545 0.0287596 0)
(-0.492309 0.421312 0)
(-0.206537 0.755166 0)
(-0.520239 0.647845 0)
(-0.894395 0.0819683 0)
(-0.985907 -0.655225 0)
(-1.03837 -0.823549 0)
(-1.01638 -0.655291 0)
(-1.02598 -0.219245 0)
(-1.11469 0.201194 0)
(-1.19565 0.250897 0)
(-1.15742 0.00170086 0)
(-1.08904 -0.249623 0)
(-0.401143 0.562194 0)
(-0.814348 0.929681 0)
(-1.20844 1.06796 0)
(-1.6531 1.12778 0)
(-1.98168 0.766788 0)
(-2.10011 0.112636 0)
(-2.0755 -0.225392 0)
(-1.97942 -0.353132 0)
(-1.81666 -0.325146 0)
(-1.62116 -0.284416 0)
(-1.40102 -0.234563 0)
(-1.13686 -0.0571933 0)
(-0.846409 0.261216 0)
(-0.607642 0.663351 0)
(-0.718722 0.673117 0)
(-1.24851 -0.410071 0)
(-1.38462 -0.835247 0)
(-1.3262 -0.669537 0)
(-1.27983 -0.17744 0)
(-1.35261 0.306506 0)
(-1.44915 0.237489 0)
(-1.27325 -0.148664 0)
(-0.976357 -0.570338 0)
(-0.365493 1.0239 0)
(-0.718975 1.32427 0)
(-1.14252 1.58143 0)
(-1.49266 1.79556 0)
(-1.71445 1.23951 0)
(-1.8536 0.31686 0)
(-2.10211 -0.14112 0)
(-2.32335 -0.383929 0)
(-2.25553 -0.455726 0)
(-2.02673 -0.460346 0)
(-1.77724 -0.410625 0)
(-1.53407 -0.212499 0)
(-1.29586 0.113656 0)
(-1.17534 0.412321 0)
(-1.10913 0.83296 0)
(-1.44598 -0.161133 0)
(-1.69439 -0.851746 0)
(-1.72998 -0.750836 0)
(-1.62056 -0.248835 0)
(-1.44965 0.257658 0)
(-1.17878 0.0561468 0)
(-0.955634 -0.367747 0)
(-0.885235 -0.755443 0)
(-0.358211 1.42942 0)
(-0.437957 1.66315 0)
(-0.885415 2.17527 0)
(-1.18664 2.04837 0)
(-1.41725 1.28043 0)
(-1.69423 0.544174 0)
(-2.02709 0.111365 0)
(-2.30928 -0.252224 0)
(-2.50764 -0.508436 0)
(-2.51808 -0.658008 0)
(-2.38596 -0.750832 0)
(-2.21206 -0.475242 0)
(-1.89879 0.121853 0)
(-1.70956 0.652268 0)
(-1.73297 0.950734 0)
(-1.50882 0.246665 0)
(-1.57233 -0.625687 0)
(-1.78172 -0.642833 0)
(-1.63369 -0.325044 0)
(-1.37706 -0.219106 0)
(-1.07147 -0.208792 0)
(-0.899792 -0.456288 0)
(-0.871601 -0.654736 0)
(-0.406119 1.73676 0)
(-0.302826 2.05537 0)
(-0.808509 2.61493 0)
(-0.977974 2.14317 0)
(-1.10091 1.36921 0)
(-1.32432 0.808774 0)
(-1.57756 0.419048 0)
(-1.83863 0.0513733 0)
(-2.11373 -0.275886 0)
(-2.38276 -0.575876 0)
(-2.67413 -0.824192 0)
(-2.90458 -0.800992 0)
(-2.87645 -0.290663 0)
(-2.51137 0.391707 0)
(-2.0285 0.471426 0)
(-1.70214 -0.235489 0)
(-1.69171 -0.599505 0)
(-1.78833 -0.663247 0)
(-1.77187 -0.526841 0)
(-1.65504 -0.464216 0)
(-1.32053 -0.430578 0)
(-1.09324 -0.504361 0)
(-0.945824 -0.663262 0)
(-0.461719 1.99709 0)
(-0.230838 2.40531 0)
(-0.807167 2.84238 0)
(-0.785387 2.2144 0)
(-0.805756 1.501 0)
(-0.883751 1.00133 0)
(-0.944387 0.628009 0)
(-1.01969 0.317436 0)
(-1.1628 0.0763049 0)
(-1.39345 -0.142958 0)
(-1.68553 -0.326962 0)
(-2.00862 -0.402185 0)
(-2.15561 -0.319469 0)
(-1.99906 -0.160604 0)
(-1.68499 -0.131739 0)
(-1.48369 -0.347899 0)
(-1.49067 -0.540159 0)
(-1.49642 -0.594287 0)
(-1.38947 -0.568184 0)
(-1.22763 -0.620525 0)
(-1.13461 -0.84656 0)
(-1.08104 -0.830892 0)
(-0.946113 -0.821824 0)
(-0.514048 2.2487 0)
(-0.130643 2.68727 0)
(-0.74314 2.95079 0)
(-0.597452 2.21713 0)
(-0.579348 1.52966 0)
(-0.579551 1.02614 0)
(-0.572675 0.644063 0)
(-0.600449 0.365979 0)
(-0.65027 0.171762 0)
(-0.723792 0.00264127 0)
(-0.855681 -0.149104 0)
(-1.04262 -0.227924 0)
(-1.17516 -0.191374 0)
(-1.15503 -0.135944 0)
(-1.05477 -0.192195 0)
(-0.968698 -0.360831 0)
(-0.985041 -0.519472 0)
(-1.03216 -0.639915 0)
(-1.01262 -0.694567 0)
(-0.944346 -0.643778 0)
(-0.866571 -0.666789 0)
(-0.792514 -0.91255 0)
(-0.799632 -1.01621 0)
(-0.560594 2.49596 0)
(-0.115327 2.92113 0)
(-0.666547 3.02047 0)
(-0.457842 2.17426 0)
(-0.468446 1.48458 0)
(-0.502774 1.00623 0)
(-0.571804 0.649483 0)
(-0.636955 0.387651 0)
(-0.647531 0.189342 0)
(-0.616546 0.045262 0)
(-0.575722 -0.0448973 0)
(-0.538367 -0.0943197 0)
(-0.510311 -0.129314 0)
(-0.484992 -0.177647 0)
(-0.454446 -0.246804 0)
(-0.43631 -0.355813 0)
(-0.458222 -0.46788 0)
(-0.52999 -0.574055 0)
(-0.57674 -0.679179 0)
(-0.615672 -0.740092 0)
(-0.632466 -0.798501 0)
(-0.654469 -0.850978 0)
(-0.696133 -0.870009 0)
(-0.604258 2.79936 0)
(-0.0940976 3.10294 0)
(-0.679433 3.0378 0)
(-0.372322 2.15116 0)
(-0.523645 1.49486 0)
(-0.653434 1.09955 0)
(-0.835981 0.751553 0)
(-0.932856 0.42907 0)
(-0.924017 0.141962 0)
(-0.829658 -0.071682 0)
(-0.685153 -0.197544 0)
(-0.525637 -0.244516 0)
(-0.364774 -0.240372 0)
(-0.220754 -0.230253 0)
(-0.115523 -0.255297 0)
(-0.0792546 -0.334754 0)
(-0.0857822 -0.427222 0)
(-0.150322 -0.510497 0)
(-0.198789 -0.589726 0)
(-0.281846 -0.653705 0)
(-0.326681 -0.732441 0)
(-0.401972 -0.825445 0)
(-0.495568 -0.883422 0)
(-0.632136 3.06291 0)
(0.0975413 3.27522 0)
(-0.927117 2.96983 0)
(-0.332844 2.17861 0)
(-0.710867 1.63597 0)
(-0.902981 1.30969 0)
(-1.15262 0.910226 0)
(-1.2508 0.476835 0)
(-1.21383 0.0767597 0)
(-1.0606 -0.217697 0)
(-0.844421 -0.383146 0)
(-0.622073 -0.445256 0)
(-0.41777 -0.44995 0)
(-0.235133 -0.431426 0)
(-0.0770202 -0.409951 0)
(0.0417004 -0.399876 0)
(0.105134 -0.411214 0)
(0.103431 -0.456713 0)
(0.057271 -0.525317 0)
(-0.0169594 -0.590545 0)
(-0.0545761 -0.65686 0)
(-0.137916 -0.700223 0)
(-0.266659 -0.746719 0)
(-0.633341 3.16469 0)
(0.36554 3.95452 0)
(-1.15772 2.82057 0)
(-0.355702 2.23132 0)
(-0.87024 1.8744 0)
(-1.08514 1.57465 0)
(-1.3803 1.09463 0)
(-1.50424 0.518945 0)
(-1.46646 -0.038113 0)
(-1.26238 -0.449881 0)
(-0.967562 -0.649509 0)
(-0.673339 -0.687567 0)
(-0.431261 -0.656076 0)
(-0.242196 -0.607766 0)
(-0.0903589 -0.563584 0)
(0.0339481 -0.528061 0)
(0.1314 -0.496591 0)
(0.199033 -0.475514 0)
(0.216488 -0.48467 0)
(0.175813 -0.527925 0)
(0.118105 -0.595138 0)
(0.0461866 -0.634047 0)
(-0.0424493 -0.672214 0)
(-0.577381 3.11329 0)
(0.407889 4.64559 0)
(-0.703085 2.86309 0)
(-0.386456 2.24575 0)
(-0.80598 2.15028 0)
(-1.04656 1.86591 0)
(-1.39325 1.31297 0)
(-1.57616 0.573552 0)
(-1.56652 -0.202689 0)
(-1.35271 -0.788921 0)
(-1.01386 -1.02781 0)
(-0.657547 -1.00513 0)
(-0.375341 -0.889237 0)
(-0.179427 -0.776014 0)
(-0.0442147 -0.692592 0)
(0.0571842 -0.631837 0)
(0.138112 -0.584665 0)
(0.204538 -0.545447 0)
(0.256578 -0.512286 0)
(0.280361 -0.501668 0)
(0.260076 -0.526016 0)
(0.210206 -0.560668 0)
(0.159112 -0.604898 0)
(-0.442498 2.94898 0)
(0.585149 4.64138 0)
(0.368394 3.46589 0)
(-0.09781 2.34575 0)
(-0.449886 2.40452 0)
(-0.660808 2.17997 0)
(-1.03917 1.57776 0)
(-1.2406 0.67255 0)
(-1.22443 -0.351411 0)
(-1.10103 -1.1247 0)
(-0.840346 -1.44342 0)
(-0.5066 -1.36177 0)
(-0.229963 -1.13356 0)
(-0.0496956 -0.935299 0)
(0.0606825 -0.796764 0)
(0.133686 -0.705448 0)
(0.184511 -0.64282 0)
(0.223874 -0.596152 0)
(0.257111 -0.558679 0)
(0.285434 -0.530191 0)
(0.299676 -0.51659 0)
(0.290559 -0.525636 0)
(0.256538 -0.554648 0)
(-0.0802443 2.56013 0)
(0.867237 4.18272 0)
(1.23059 3.86254 0)
(0.812186 2.83176 0)
(0.251146 2.61244 0)
(0.0493407 2.45456 0)
(-0.223281 1.87402 0)
(-0.324429 0.844009 0)
(-0.247067 -0.318838 0)
(-0.301976 -1.2131 0)
(-0.312348 -1.68792 0)
(-0.150611 -1.63431 0)
(0.0266101 -1.33156 0)
(0.141212 -1.05536 0)
(0.207796 -0.866311 0)
(0.244016 -0.746716 0)
(0.263005 -0.669159 0)
(0.272477 -0.615563 0)
(0.277801 -0.575783 0)
(0.282105 -0.545621 0)
(0.283773 -0.525681 0)
(0.278899 -0.518893 0)
(0.256153 -0.524003 0)
(0.225383 2.01746 0)
(1.0608 3.51858 0)
(1.78267 3.76141 0)
(1.85536 3.36474 0)
(1.39165 2.99124 0)
(1.06501 2.68295 0)
(0.885247 2.06038 0)
(0.826233 0.997297 0)
(0.828423 -0.129357 0)
(0.733864 -1.05753 0)
(0.495519 -1.63656 0)
(0.371615 -1.69511 0)
(0.372573 -1.40434 0)
(0.379309 -1.09536 0)
(0.37604 -0.883472 0)
(0.366088 -0.750961 0)
(0.351871 -0.665469 0)
(0.334749 -0.607432 0)
(0.316155 -0.566052 0)
(0.29776 -0.535585 0)
(0.279626 -0.514102 0)
(0.260023 -0.501389 0)
(0.231363 -0.494481 0)
(0.202836 1.28224 0)
(1.09573 2.49799 0)
(1.98888 3.14935 0)
(2.5307 3.44297 0)
(2.52363 3.35716 0)
(2.28734 2.9734 0)
(2.12079 2.23225 0)
(1.99506 1.15902 0)
(1.84105 0.0307464 0)
(1.61063 -0.860437 0)
(1.27229 -1.40819 0)
(0.93469 -1.52756 0)
(0.738815 -1.3038 0)
(0.620239 -1.03194 0)
(0.54036 -0.83789 0)
(0.481747 -0.71431 0)
(0.434844 -0.63305 0)
(0.394351 -0.576887 0)
(0.357626 -0.53667 0)
(0.323642 -0.507322 0)
(0.291486 -0.485851 0)
(0.259946 -0.470644 0)
(0.22492 -0.458294 0)
(0.155904 0.689764 0)
(0.852899 1.42139 0)
(1.82666 2.23067 0)
(2.61365 2.91456 0)
(3.04927 3.27306 0)
(3.14782 3.11285 0)
(3.07439 2.42182 0)
(2.89479 1.40456 0)
(2.62863 0.353939 0)
(2.25445 -0.496954 0)
(1.80187 -1.0416 0)
(1.35269 -1.19983 0)
(1.02647 -1.06412 0)
(0.813105 -0.876124 0)
(0.673534 -0.73519 0)
(0.575616 -0.640637 0)
(0.501888 -0.575308 0)
(0.442746 -0.528457 0)
(0.392815 -0.493961 0)
(0.349049 -0.468144 0)
(0.309215 -0.448673 0)
(0.271757 -0.433565 0)
(0.234273 -0.41933 0)
(0.148419 0.311841 0)
(0.492343 0.630624 0)
(1.29818 1.35519 0)
(2.1304 2.14539 0)
(2.76915 2.77446 0)
(3.15719 2.92102 0)
(3.26716 2.47366 0)
(3.15504 1.62816 0)
(2.86826 0.715648 0)
(2.4644 -0.064614 0)
(1.9998 -0.599082 0)
(1.53581 -0.790727 0)
(1.17204 -0.756728 0)
(0.924146 -0.670418 0)
(0.757266 -0.597013 0)
(0.63774 -0.541658 0)
(0.547669 -0.499533 0)
(0.476655 -0.467274 0)
(0.418313 -0.442407 0)
(0.368733 -0.423009 0)
(0.325071 -0.407513 0)
(0.285291 -0.394637 0)
(0.247692 -0.38207 0)
(0.0677023 0.0995501 0)
(0.170762 0.232835 0)
(0.565581 0.723383 0)
(1.2714 1.4797 0)
(1.88143 2.17869 0)
(2.41567 2.5294 0)
(2.68898 2.33334 0)
(2.71182 1.73504 0)
(2.54281 0.999797 0)
(2.2601 0.309807 0)
(1.88381 -0.18046 0)
(1.49809 -0.398221 0)
(1.18062 -0.458464 0)
(0.952469 -0.461903 0)
(0.788873 -0.449481 0)
(0.666113 -0.432414 0)
(0.571239 -0.415026 0)
(0.49572 -0.399379 0)
(0.433726 -0.385985 0)
(0.381437 -0.374603 0)
(0.336097 -0.364676 0)
(0.295783 -0.355636 0)
(0.259151 -0.346033 0)
(0.000827968 0.0743765 0)
(-0.0967941 0.126991 0)
(-0.0437162 0.383686 0)
(0.337316 0.990605 0)
(0.845294 1.6587 0)
(1.35904 2.09278 0)
(1.73577 2.08611 0)
(1.91593 1.69481 0)
(1.94121 1.11603 0)
(1.81877 0.544488 0)
(1.58899 0.141007 0)
(1.32793 -0.0957288 0)
(1.09975 -0.219391 0)
(0.91952 -0.281739 0)
(0.777915 -0.312522 0)
(0.665261 -0.32596 0)
(0.574784 -0.330363 0)
(0.500943 -0.330405 0)
(0.439431 -0.328376 0)
(0.387155 -0.325287 0)
(0.341817 -0.321493 0)
(0.301841 -0.317129 0)
(0.266217 -0.311516 0)
(-0.0280319 0.166414 0)
(-0.213065 0.213809 0)
(-0.33962 0.313168 0)
(-0.268285 0.689775 0)
(0.0438129 1.22766 0)
(0.481465 1.64777 0)
(0.894432 1.74185 0)
(1.18849 1.50258 0)
(1.34439 1.08278 0)
(1.36667 0.658107 0)
(1.27408 0.320865 0)
(1.12934 0.0932501 0)
(0.982748 -0.0504692 0)
(0.851604 -0.14033 0)
(0.738629 -0.196219 0)
(0.642874 -0.23056 0)
(0.562241 -0.251587 0)
(0.494179 -0.264532 0)
(0.436126 -0.272431 0)
(0.385997 -0.277002 0)
(0.34216 -0.279213 0)
(0.303468 -0.279703 0)
(0.269138 -0.278318 0)
(-0.0283562 0.275395 0)
(-0.192976 0.371596 0)
(-0.34321 0.397146 0)
(-0.395278 0.589697 0)
(-0.267073 0.925094 0)
(0.035402 1.23879 0)
(0.397962 1.34729 0)
(0.715623 1.221 0)
(0.932969 0.953137 0)
(1.02342 0.653774 0)
(1.01267 0.394919 0)
(0.946822 0.19972 0)
(0.859385 0.0610463 0)
(0.768811 -0.0358148 0)
(0.683366 -0.10317 0)
(0.606195 -0.149718 0)
(0.537831 -0.181995 0)
(0.477739 -0.204501 0)
(0.425003 -0.220268 0)
(0.378578 -0.231299 0)
(0.337445 -0.238876 0)
(0.300871 -0.243917 0)
(0.268317 -0.246575 0)
(-0.0217628 0.358571 0)
(-0.122492 0.503691 0)
(-0.218296 0.504575 0)
(-0.261138 0.594386 0)
(-0.20202 0.773399 0)
(-0.0104089 0.959418 0)
(0.255052 1.03327 0)
(0.508954 0.966413 0)
(0.693774 0.800349 0)
(0.790799 0.599908 0)
(0.815163 0.411366 0)
(0.792179 0.254094 0)
(0.743579 0.131028 0)
(0.683801 0.0378402 0)
(0.621637 -0.0318736 0)
(0.561514 -0.0840806 0)
(0.505387 -0.12283 0)
(0.454147 -0.151662 0)
(0.407758 -0.173198 0)
(0.365943 -0.189343 0)
(0.328312 -0.201409 0)
(0.294496 -0.210407 0)
(0.264127 -0.216676 0)
(-0.0178783 0.407972 0)
(-0.0635293 0.57166 0)
(-0.100662 0.557607 0)
(-0.105829 0.59389 0)
(-0.0543416 0.687805 0)
(0.0707342 0.786309 0)
(0.243423 0.823964 0)
(0.414921 0.781651 0)
(0.549252 0.676052 0)
(0.631948 0.540187 0)
(0.666692 0.402007 0)
(0.665412 0.277647 0)
(0.640851 0.173045 0)
(0.603174 0.0881981 0)
(0.559056 0.0208823 0)
(0.513314 -0.0321769 0)
(0.468607 -0.0738532 0)
(0.425901 -0.106394 0)
(0.38602 -0.131833 0)
(0.349264 -0.15173 0)
(0.315581 -0.167311 0)
(0.284871 -0.179579 0)
(0.256964 -0.188925 0)
(-0.014717 0.435012 0)
(-0.0284253 0.591072 0)
(-0.0278885 0.56265 0)
(-0.00930713 0.567967 0)
(0.0411969 0.617204 0)
(0.127901 0.669823 0)
(0.240284 0.687233 0)
(0.355068 0.655974 0)
(0.451461 0.582927 0)
(0.518052 0.485906 0)
(0.553423 0.382402 0)
(0.562477 0.28407 0)
(0.552301 0.196576 0)
(0.529524 0.121662 0)
(0.49931 0.0590299 0)
(0.46515 0.00773815 0)
(0.429804 -0.0342792 0)
(0.395013 -0.0685087 0)
(0.361478 -0.0961826 0)
(0.329759 -0.118592 0)
(0.300088 -0.136797 0)
(0.272618 -0.151632 0)
(0.247322 -0.163478 0)
(-0.0104291 0.448774 0)
(-0.00798985 0.585485 0)
(0.012038 0.545475 0)
(0.0403992 0.532996 0)
(0.0853429 0.557919 0)
(0.149276 0.587157 0)
(0.227582 0.593246 0)
(0.308599 0.566757 0)
(0.379896 0.511869 0)
(0.433064 0.439302 0)
(0.465438 0.359863 0)
(0.478773 0.281364 0)
(0.476903 0.208391 0)
(0.463982 0.143163 0)
(0.443636 0.0863884 0)
(0.418725 0.0378656 0)
(0.391342 -0.00293345 0)
(0.363219 -0.0372276 0)
(0.335403 -0.0659461 0)
(0.30837 -0.0899239 0)
(0.28258 -0.109927 0)
(0.258353 -0.126651 0)
(0.235742 -0.140463 0)
(-0.00582625 0.452826 0)
(0.00568402 0.568244 0)
(0.0338559 0.519607 0)
(0.0646603 0.497569 0)
(0.103281 0.509866 0)
(0.152532 0.525955 0)
(0.210537 0.524736 0)
(0.270653 0.500533 0)
(0.324915 0.456802 0)
(0.367411 0.400336 0)
(0.395693 0.337749 0)
(0.410187 0.274142 0)
(0.412895 0.212992 0)
(0.406344 0.156434 0)
(0.392997 0.105561 0)
(0.375004 0.0607072 0)
(0.354108 0.0217148 0)
(0.331651 -0.0118157 0)
(0.308691 -0.0407042 0)
(0.285963 -0.0654278 0)
(0.263866 -0.0865324 0)
(0.242767 -0.104595 0)
(0.222837 -0.11993 0)
(-0.00196692 0.449523 0)
(0.0149515 0.545135 0)
(0.0455606 0.490403 0)
(0.0755489 0.46474 0)
(0.10854 0.470552 0)
(0.147713 0.47865 0)
(0.192527 0.472692 0)
(0.23871 0.44994 0)
(0.280903 0.413591 0)
(0.315049 0.36809 0)
(0.339238 0.317465 0)
(0.353362 0.265009 0)
(0.358408 0.213291 0)
(0.355875 0.164157 0)
(0.347402 0.118761 0)
(0.334555 0.0776665 0)
(0.318708 0.041005 0)
(0.300944 0.00862993 0)
(0.28223 -0.0197668 0)
(0.263296 -0.0446787 0)
(0.244562 -0.0664127 0)
(0.226439 -0.0854121 0)
(0.209169 -0.101933 0)
(0.000908516 0.441314 0)
(0.0206745 0.519237 0)
(0.0509354 0.461199 0)
(0.0786602 0.435344 0)
(0.106908 0.437896 0)
(0.138902 0.440917 0)
(0.174617 0.431927 0)
(0.211033 0.410371 0)
(0.244444 0.379229 0)
(0.272103 0.34145 0)
(0.292613 0.29946 0)
(0.30568 0.255394 0)
(0.311744 0.211138 0)
(0.311674 0.168209 0)
(0.30655 0.127671 0)
(0.297493 0.0901515 0)
(0.285555 0.0559309 0)
(0.271657 0.0250398 0)
(0.256517 -0.00260595 0)
(0.24087 -0.0273188 0)
(0.2252 -0.0493486 0)
(0.20981 -0.0689763 0)
(0.19501 -0.0864007 0)
(0.00308081 0.429855 0)
(0.0238402 0.492947 0)
(0.0521588 0.433716 0)
(0.0770859 0.409436 0)
(0.101395 0.4104 0)
(0.128083 0.410062 0)
(0.157235 0.39921 0)
(0.186551 0.378806 0)
(0.213431 0.35155 0)
(0.236039 0.319381 0)
(0.253385 0.283746 0)
(0.265141 0.246051 0)
(0.271462 0.207691 0)
(0.272845 0.169879 0)
(0.269996 0.133532 0)
(0.263712 0.0992579 0)
(0.254786 0.0674 0)
(0.24395 0.0380972 0)
(0.231823 0.0113437 0)
(0.218983 -0.0129121 0)
(0.205868 -0.0350072 0)
(0.192845 -0.0549959 0)
(0.180128 -0.0730585 0)
(0.0047493 0.41636 0)
(0.0253199 0.467737 0)
(0.0507934 0.408764 0)
(0.0728168 0.386796 0)
(0.0938122 0.386958 0)
(0.116414 0.384339 0)
(0.140627 0.372451 0)
(0.164601 0.353219 0)
(0.186506 0.328992 0)
(0.205138 0.301019 0)
(0.219804 0.270155 0)
(0.230201 0.237355 0)
(0.236348 0.203663 0)
(0.238519 0.170038 0)
(0.237175 0.137246 0)
(0.232877 0.105839 0)
(0.226212 0.0761716 0)
(0.217745 0.0484385 0)
(0.207993 0.0227092 0)
(0.197341 -0.0010228 0)
(0.186214 -0.0228895 0)
(0.174973 -0.0429637 0)
(0.163696 -0.0613638 0)
(0.00601002 0.401648 0)
(0.0257211 0.444435 0)
(0.0479423 0.386709 0)
(0.0671338 0.367151 0)
(0.0852559 0.366809 0)
(0.104568 0.362614 0)
(0.1249 0.350274 0)
(0.144704 0.332228 0)
(0.162713 0.31044 0)
(0.17815 0.285685 0)
(0.190531 0.25847 0)
(0.199599 0.229478 0)
(0.205305 0.199502 0)
(0.207795 0.1693 0)
(0.207362 0.139505 0)
(0.20439 0.110602 0)
(0.199301 0.0829361 0)
(0.192514 0.0567261 0)
(0.184414 0.032087 0)
(0.175335 0.00905032 0)
(0.165571 -0.0123508 0)
(0.15543 -0.0322348 0)
(0.144998 -0.050661 0)
(0.00690349 0.386322 0)
(0.0254111 0.423414 0)
(0.0443414 0.367654 0)
(0.0608266 0.350265 0)
(0.0763577 0.349457 0)
(0.0928943 0.344157 0)
(0.110031 0.331765 0)
(0.126447 0.314893 0)
(0.141296 0.295114 0)
(0.154082 0.272881 0)
(0.164462 0.248512 0)
(0.172224 0.222523 0)
(0.177288 0.195534 0)
(0.179718 0.16815 0)
(0.179691 0.140893 0)
(0.177463 0.11419 0)
(0.173324 0.0883617 0)
(0.167575 0.0636383 0)
(0.160506 0.0401642 0)
(0.152384 0.0180171 0)
(0.14343 -0.00277648 0)
(0.133934 -0.0222363 0)
(0.124044 -0.0404959 0)
(0.00743879 0.370828 0)
(0.0245792 0.404664 0)
(0.0404198 0.35151 0)
(0.0543244 0.335937 0)
(0.067433 0.33458 0)
(0.0815147 0.328488 0)
(0.0958838 0.316309 0)
(0.10942 0.30057 0)
(0.121592 0.28247 0)
(0.132081 0.262252 0)
(0.140635 0.240148 0)
(0.147078 0.216572 0)
(0.151318 0.192023 0)
(0.153367 0.166989 0)
(0.153327 0.141911 0)
(0.151361 0.117159 0)
(0.147671 0.0930293 0)
(0.142477 0.0697465 0)
(0.136005 0.0474637 0)
(0.128482 0.0262693 0)
(0.12012 0.00618497 0)
(0.111224 -0.0127833 0)
(0.102006 -0.0308563 0)
(0.00763034 0.355742 0)
(0.023371 0.388224 0)
(0.0364518 0.338214 0)
(0.0478714 0.324083 0)
(0.0586557 0.322052 0)
(0.0704822 0.31539 0)
(0.0823423 0.303591 0)
(0.0933273 0.288923 0)
(0.103138 0.272234 0)
(0.111551 0.253654 0)
(0.118382 0.233386 0)
(0.123478 0.211782 0)
(0.126749 0.189251 0)
(0.128184 0.1662 0)
(0.127842 0.142999 0)
(0.125832 0.11997 0)
(0.122304 0.0973793 0)
(0.117434 0.0754339 0)
(0.111416 0.0542763 0)
(0.104465 0.0339812 0)
(0.0968123 0.014551 0)
(0.0887423 -0.00404785 0)
(0.0804944 -0.0220894 0)
(0.00744671 0.340833 0)
(0.0216511 0.37329 0)
(0.0322767 0.327282 0)
(0.0413204 0.314389 0)
(0.0498412 0.311552 0)
(0.0594981 0.304459 0)
(0.0689525 0.293137 0)
(0.0775711 0.279463 0)
(0.0851984 0.263978 0)
(0.0916585 0.246767 0)
(0.0968161 0.22803 0)
(0.100548 0.208074 0)
(0.102779 0.187239 0)
(0.103498 0.165868 0)
(0.102748 0.144274 0)
(0.100618 0.122734 0)
(0.0972344 0.101481 0)
(0.092748 0.080697 0)
(0.0873359 0.0605002 0)
(0.0811966 0.040936 0)
(0.0745562 0.0219777 0)
(0.0676523 0.00354111 0)
(0.0606936 -0.014575 0)
(0.00715894 0.329085 0)
(0.0201939 0.362125 0)
(0.0288494 0.31969 0)
(0.0356629 0.307568 0)
(0.0421707 0.303981 0)
(0.0499588 0.29665 0)
(0.0573258 0.285794 0)
(0.0639292 0.272941 0)
(0.0696911 0.258385 0)
(0.07446 0.242218 0)
(0.0781521 0.22465 0)
(0.0806754 0.205943 0)
(0.081985 0.186395 0)
(0.0820867 0.166296 0)
(0.0810247 0.145918 0)
(0.0788791 0.125497 0)