/*--------------------------------*- C++ -*----------------------------------*\
  =========                 |
  \\      /  F ield         | OpenFOAM: The Open Source CFD Toolbox
   \\    /   O peration     | Website:  https://openfoam.org
    \\  /    A nd           | Version:  13
     \\/     M anipulation  |
\*---------------------------------------------------------------------------*/
FoamFile
{
    format      ascii;
    class       surfaceScalarField;
    location    "0.65";
    object      alphaPhi.water;
}
// * * * * * * * * * * * * * * * * * * * * * * * * * * * * * * * * * * * * * //

dimensions      [0 3 -1 0 0 0 0];

internalField   nonuniform List<scalar> 
4432
(
-3.21304e-06
3.21304e-06
-6.24457e-06
3.03153e-06
-7.61086e-06
1.36629e-06
-7.87285e-06
2.61992e-07
-7.09486e-06
-7.77998e-07
-4.93598e-06
-2.15887e-06
-1.58312e-06
-3.35287e-06
1.82545e-06
-3.40856e-06
4.26137e-06
-2.43592e-06
5.41815e-06
-1.15679e-06
5.42552e-06
-7.36095e-09
4.48992e-06
9.35597e-07
2.9208e-06
1.56912e-06
8.78975e-07
2.04183e-06
-1.66614e-06
2.54512e-06
-5.01972e-06
3.35358e-06
-8.87588e-06
3.85636e-06
-1.11266e-05
2.92719e-06
-1.40351e-05
2.74594e-06
-2.02461e-05
5.25419e-06
-2.34726e-05
3.23183e-06
-1.60721e-05
-7.39536e-06
-1.60661e-05
-3.90517e-06
7.11821e-06
-6.23848e-06
5.36484e-06
-7.07284e-06
2.20065e-06
-7.47079e-06
6.59941e-07
-7.07254e-06
-1.17626e-06
-5.16581e-06
-4.0656e-06
-1.80743e-06
-6.71125e-06
1.75666e-06
-6.97264e-06
4.31675e-06
-4.99602e-06
5.53794e-06
-2.37797e-06
5.76963e-06
-2.39052e-07
5.45792e-06
1.2473e-06
4.79419e-06
2.23286e-06
3.88589e-06
2.95012e-06
2.66765e-06
3.76338e-06
8.64834e-07
5.15639e-06
-2.26319e-06
6.98487e-06
-7.13995e-06
7.96116e-06
-1.25892e-05
8.90886e-06
-1.74535e-05
9.61339e-06
-1.76856e-05
3.08597e-06
-1.13104e-05
-1.35952e-05
-2.73273e-05
-2.97708e-06
1.00953e-05
-4.73928e-06
7.12705e-06
-5.76856e-06
3.22992e-06
-6.67826e-06
1.56965e-06
-6.82842e-06
-1.0261e-06
-5.27489e-06
-5.61912e-06
-2.13124e-06
-9.8549e-06
1.3523e-06
-1.04562e-05
3.90506e-06
-7.54877e-06
5.09771e-06
-3.57062e-06
5.19793e-06
-3.39267e-07
4.67341e-06
1.77182e-06
3.9093e-06
2.99698e-06
3.19233e-06
3.66708e-06
2.7254e-06
4.23032e-06
2.57794e-06
5.30386e-06
2.30698e-06
7.25583e-06
5.88589e-07
9.67957e-06
-2.49211e-06
1.21549e-05
-5.69252e-06
1.32403e-05
-6.74098e-06
4.03526e-06
-4.09488e-06
-1.6011e-05
-3.14061e-05
-1.5376e-06
1.16329e-05
-2.50703e-06
8.09648e-06
-3.48285e-06
4.20575e-06
-4.34624e-06
2.43304e-06
-4.33805e-06
-1.0343e-06
-2.89237e-06
-7.0648e-06
-5.52557e-07
-1.21947e-05
1.80831e-06
-1.2817e-05
3.58383e-06
-9.3243e-06
4.42588e-06
-4.41267e-06
4.41229e-06
-3.25673e-07
3.8356e-06
2.34851e-06
3.01599e-06
3.81659e-06
2.27737e-06
4.4057e-06
1.86049e-06
4.6472e-06
1.93681e-06
5.22754e-06
2.78693e-06
6.40572e-06
3.94955e-06
8.51696e-06
5.06245e-06
1.10421e-05
5.86026e-06
1.27078e-05
4.64205e-06
5.1543e-06
3.13282e-06
-1.46426e-05
-2.83535e-05
3.6906e-07
1.12638e-05
7.87752e-07
7.67779e-06
6.21195e-07
4.3723e-06
8.15434e-07
2.2388e-06
1.89663e-06
-2.1155e-06
3.26566e-06
-8.43383e-06
4.05497e-06
-1.2984e-05
4.23952e-06
-1.30016e-05
4.07062e-06
-9.15539e-06
3.82017e-06
-4.16222e-06
3.44031e-06
5.41824e-08
2.84399e-06
2.94483e-06
2.10456e-06
4.55603e-06
1.51265e-06
4.9976e-06
1.27617e-06
4.88368e-06
1.39161e-06
5.11211e-06
2.14491e-06
5.65242e-06
3.96545e-06
6.69642e-06
7.15467e-06
7.85285e-06
1.08783e-05
8.98429e-06
1.13036e-05
4.62901e-06
7.38921e-06
-1.10978e-05
-2.09647e-05
2.79508e-06
8.46874e-06
5.26111e-06
5.21177e-06
6.97272e-06
2.66069e-06
9.11412e-06
9.74039e-08
1.14485e-05
-4.44988e-06
1.21787e-05
-9.16413e-06
1.08151e-05
-1.16204e-05
8.24993e-06
-1.04363e-05
5.61673e-06
-6.52215e-06
3.65783e-06
-2.20328e-06
2.54879e-06
1.16323e-06
1.75944e-06
3.73417e-06
1.08837e-06
5.22711e-06
6.99721e-07
5.38625e-06
7.72243e-07
4.81116e-06
1.1207e-06
4.76365e-06
1.82384e-06
4.94928e-06
3.29798e-06
5.22228e-06
6.06059e-06
5.09025e-06
1.0169e-05
4.87589e-06
1.21027e-05
2.69517e-06
8.54365e-06
-7.53872e-06
-1.24213e-05
4.77044e-06
3.6983e-06
1.02831e-05
-3.0127e-07
1.55294e-05
-2.58127e-06
2.00972e-05
-4.47076e-06
2.19893e-05
-6.34247e-06
2.02653e-05
-7.44053e-06
1.61704e-05
-7.51918e-06
1.15334e-05
-5.7912e-06
7.37867e-06
-2.36543e-06
4.10357e-06
1.07201e-06
2.08523e-06
3.18155e-06
8.09827e-07
5.00957e-06
3.48687e-08
6.00208e-06
-1.47891e-07
5.56901e-06
2.62738e-07
4.40053e-06
9.04418e-07
4.12197e-06
1.74662e-06
4.10708e-06
3.07073e-06
3.89817e-06
4.96708e-06
3.19389e-06
7.93004e-06
1.91294e-06
1.01114e-05
5.13771e-07
8.43109e-06
-5.85837e-06
-3.99078e-06
8.53845e-06
-3.99975e-06
1.69816e-05
-7.40348e-06
2.20923e-05
-6.43336e-06
2.42585e-05
-5.17891e-06
2.30724e-05
-3.68364e-06
1.95067e-05
-2.38459e-06
1.53517e-05
-2.11589e-06
1.10628e-05
-1.19923e-06
7.52848e-06
1.12895e-06
4.70893e-06
3.89153e-06
2.5629e-06
5.32756e-06
7.23563e-07
6.84888e-06
-5.79325e-07
7.30491e-06
-9.75175e-07
5.96484e-06
-3.95929e-07
3.82128e-06
4.89291e-07
3.23676e-06
1.51081e-06
3.08555e-06
2.96011e-06
2.44888e-06
4.70444e-06
1.44956e-06
6.58297e-06
3.44013e-08
7.8615e-06
-7.6475e-07
6.7766e-06
-4.77347e-06
2.7855e-06
-3.69753e-05
2.00276e-05
-4.8203e-05
1.12277e-05
-3.31386e-05
-1.50643e-05
-1.02605e-05
-2.28781e-05
1.09611e-05
-2.12216e-05
1.94403e-05
-1.90584e-05
3.16867e-05
-1.28772e-05
1.21637e-05
1.86252e-05
-5.00204e-05
6.2871e-05
-0.00010551
5.50605e-05
-0.00012868
2.27491e-05
-0.000135694
6.5941e-06
-0.000136048
-7.30016e-08
-0.000130871
-5.37307e-06
-0.000120078
-1.09272e-05
-9.91746e-05
-2.10041e-05
-5.65885e-05
-4.26348e-05
-2.57743e-06
-5.40693e-05
-2.85743e-06
-3.44843e-05
3.3474e-05
-3.36577e-05
1.04012e-05
-1.46021e-05
-3.41198e-05
3.93282e-06
-4.14131e-05
2.14619e-05
-3.87506e-05
3.78882e-05
-3.54848e-05
2.70837e-05
-1.23519e-05
-3.48182e-05
9.14325e-05
-0.000112933
0.000141726
-0.000132659
5.74535e-05
-0.000134543
9.65806e-06
-0.000133867
1.15335e-06
-0.000136281
-2.4383e-06
-0.000138214
-8.32612e-06
-0.000132342
-1.96621e-05
-0.00011219
-4.21197e-05
-7.32984e-05
-8.1523e-05
-1.98324e-05
-0.000107507
-2.26884e-05
-1.58288e-05
4.09032e-05
-1.06837e-05
5.25612e-06
4.40519e-06
-4.91494e-05
2.15089e-05
-5.85154e-05
3.53146e-05
-5.25564e-05
4.20238e-05
-4.2194e-05
1.12177e-05
5.52438e-06
-5.57613e-05
0.000152694
-4.92781e-05
0.000120773
-2.09388e-05
1.43117e-05
-1.89195e-05
2.18163e-06
-2.07057e-05
-8.93668e-08
-2.59461e-05
-6.28122e-07
-3.68054e-05
-1.97984e-06
-5.71051e-05
-5.8163e-06
-8.74035e-05
-1.7802e-05
-8.16894e-05
-8.95724e-05
-3.34707e-05
-0.000155722
-5.61577e-05
1.17086e-06
3.86584e-05
1.00458e-05
-2.00803e-06
2.16059e-05
-6.055e-05
3.6754e-05
-7.366e-05
4.58467e-05
-6.16493e-05
4.54205e-05
-4.1768e-05
1.07553e-05
2.74402e-05
-3.77263e-05
0.00020178
-1.35513e-05
2.36435e-05
-2.11691e-06
2.98387e-06
-2.45106e-07
1.84947e-07
-3.33899e-07
0
-9.68777e-07
-2.45715e-10
-2.72433e-06
-2.35572e-07
-7.29797e-06
-1.30625e-06
-1.95785e-05
-5.61127e-06
-7.27799e-05
-3.68288e-05
-4.1136e-05
-0.000187395
-9.72922e-05
8.30797e-06
2.93092e-05
2.45361e-05
-7.15586e-06
3.69146e-05
-7.28789e-05
5.00437e-05
-8.67801e-05
5.52747e-05
-6.68822e-05
5.09557e-05
-3.74499e-05
1.66527e-05
5.13372e-05
4.94838e-06
0.000169897
-1.66248e-06
1.4365e-05
-2.67964e-07
1.51832e-06
-9.75475e-08
3.74405e-08
-9.85282e-08
3.77101e-09
-1.28933e-07
1.75584e-09
-3.23016e-07
-4.29751e-08
-1.24805e-06
-3.97595e-07
-4.55963e-06
-2.39168e-06
-2.76338e-05
-1.27588e-05
-4.3183e-05
-0.000164026
-0.000140472
1.44279e-05
4.00875e-05
3.56433e-05
-2.24238e-05
4.88387e-05
-8.60066e-05
5.91862e-05
-9.70806e-05
6.18376e-05
-6.95966e-05
5.6532e-05
-3.2148e-05
3.00106e-05
7.73518e-05
7.44858e-06
0.000196845
5.88417e-07
2.32281e-05
-3.30683e-08
2.5246e-06
-1.94964e-08
2.32622e-08
-1.98498e-08
5.00246e-09
-2.72013e-08
4.30258e-09
-6.17692e-08
-4.02699e-09
-3.25593e-07
-1.29513e-07
-1.78872e-06
-9.92035e-07
-8.17755e-06
-6.49339e-06
-3.8589e-05
-0.000127939
-0.000179045
2.14947e-05
2.28385e-05
4.49606e-05
-4.58316e-05
5.55284e-05
-9.65133e-05
6.19978e-05
-0.000103482
5.99075e-05
-6.55462e-05
5.57113e-05
-2.34817e-05
3.70053e-05
9.58962e-05
1.59555e-05
0.000244919
2.5998e-06
4.2154e-05
1.14323e-07
3.71803e-06
-9.51292e-09
1.56563e-07
-1.11987e-08
8.03891e-09
-1.51993e-08
8.61441e-09
-1.73655e-08
5.74366e-10
-1.01259e-07
-4.37317e-08
-7.67953e-07
-3.57134e-07
-4.96521e-06
-3.19946e-06
-2.97254e-05
-9.88652e-05
-0.000208698
3.10262e-05
-8.18334e-06
5.07115e-05
-6.54983e-05
5.54649e-05
-0.000101212
5.51937e-05
-0.000103059
3.1453e-05
-4.66907e-05
3.26936e-05
-8.56454e-06
4.2823e-05
8.95665e-05
3.41183e-05
0.000237012
2.91246e-06
6.43213e-05
4.38196e-07
6.23336e-06
-1.37875e-10
6.61702e-07
-7.19331e-09
1.51574e-08
-9.96408e-09
1.07957e-08
-1.08427e-08
1.83035e-09
-3.54002e-08
-1.91742e-08
-2.81331e-07
-1.14195e-07
-2.69232e-06
-1.07193e-06
-1.96925e-05
-7.60913e-05
-0.000228129
6.33754e-06
-3.93979e-08
6.62143e-06
-4.82704e-07
4.22888e-06
-1.42025e-07
3.09445e-06
-4.51921e-07
2.80851e-06
-6.48621e-07
2.86998e-06
-4.63248e-07
3.3241e-06
-6.92882e-07
3.59859e-06
-3.84895e-07
3.83517e-06
6.11718e-07
4.28341e-06
2.3231e-06
4.28668e-06
5.32408e-06
2.31614e-06
8.81942e-06
-4.64033e-07
1.00851e-05
-1.2933e-06
6.7941e-06
3.86181e-07
2.1418e-06
1.90445e-06
1.71849e-06
3.16125e-06
1.82874e-06
5.4581e-06
1.52017e-07
9.17391e-06
-2.26625e-06
1.31486e-05
-3.94031e-06
1.71603e-05
-4.77641e-06
2.02346e-05
-7.84777e-06
-5.72514e-06
2.8744e-05
-4.00664e-08
0
-5.247e-07
0
-1.56423e-06
-1.15406e-12
-3.5867e-06
-1.44865e-11
-4.90881e-06
-1.2946e-10
-5.35156e-06
-9.39042e-10
-5.83776e-06
-5.87242e-09
-6.85397e-06
-3.39205e-08
-8.40971e-06
-1.80492e-07
-1.00447e-05
-6.62272e-07
-9.98441e-06
-1.12728e-06
-7.12154e-06
-3.72863e-08
-3.44671e-06
1.27969e-06
1.27217e-06
5.9681e-07
4.94477e-06
-1.20959e-06
5.6942e-06
9.69052e-07
5.24051e-06
2.28241e-06
6.76605e-06
-1.37355e-06
1.06979e-05
-6.19785e-06
1.41065e-05
-7.34767e-06
1.57321e-05
-6.40019e-06
1.4494e-05
-6.60881e-06
-7.99107e-06
1.67597e-05
-4.31159e-10
1.69129e-11
-2.60855e-13
0
-1.46051e-12
0
-1.63406e-11
-1.00111e-14
-1.46738e-10
0
-1.08866e-09
0
-6.96773e-09
3.43672e-12
-4.0888e-08
-4.1825e-13
-2.21376e-07
-4.09564e-12
-8.83611e-07
-3.61994e-11
-3.20054e-06
-2.93784e-10
-6.26694e-06
-2.07364e-09
-8.67203e-06
-1.29629e-08
-1.08875e-05
-7.86459e-08
-1.22725e-05
-4.55846e-07
-8.06174e-06
-2.43433e-06
-2.28417e-06
-2.47037e-06
4.22905e-06
-3.43323e-06
1.2383e-05
-6.18744e-06
1.85629e-05
-7.02653e-06
2.09988e-05
-5.41556e-06
1.84111e-05
-2.59527e-06
-1.13937e-06
1.21951e-05
2.45002e-12
0
-1.1566e-12
5.25566e-12
-5.41634e-14
2.34124e-12
-5.03964e-13
3.479e-14
-1.59628e-12
5.38697e-14
-3.57816e-12
1.21116e-13
-3.77273e-14
7.28726e-15
-4.60096e-13
1.5587e-15
-4.58548e-12
-2.05802e-14
-4.05507e-11
-2.57978e-13
-3.33889e-10
-2.02472e-13
-2.40614e-09
-9.54523e-13
-1.53639e-08
-5.12122e-12
-9.39591e-08
-5.38671e-11
-5.4943e-07
-4.06889e-10
-2.98251e-06
-1.55715e-09
-3.57307e-06
-1.01398e-08
-4.97287e-06
-5.15754e-08
-6.48427e-06
-2.53714e-07
-6.50191e-06
-9.5862e-07
-5.72472e-06
-1.66588e-06
-9.77371e-06
6.76675e-08
4.30517e-06
-3.45346e-05
2.3466e-13
5.926e-15
2.877e-12
3.9788e-13
1.24157e-13
2.15328e-12
0
1.02053e-13
-7.03812e-15
2.09229e-15
-8.64331e-15
9.64862e-16
-6.56645e-16
9.03389e-16
-1.85073e-15
4.58228e-16
-5.51501e-14
-4.50317e-14
-1.36411e-13
4.57217e-13
-3.44737e-13
5.89621e-13
-8.93016e-13
1.04703e-13
-5.21543e-12
-3.66417e-13
-3.96994e-11
-1.93151e-11
-2.24103e-10
-2.36118e-10
-1.56058e-09
-2.29745e-10
-1.17876e-08
-2.27363e-10
-6.50767e-08
-4.47072e-10
-3.2338e-07
-7.49005e-09
-1.26757e-06
-7.43384e-08
-2.81088e-06
-4.01578e-07
-3.56815e-06
-4.97799e-07
7.98743e-07
-8.56942e-05
1.74804e-16
2.16898e-15
2.15045e-13
1.86677e-14
1.06039e-13
0
3.193e-15
2.12813e-14
6.31811e-16
1.29206e-15
6.36923e-16
5.04645e-16
4.01363e-16
7.50572e-16
-7.79648e-15
7.31643e-15
-4.06148e-12
7.53669e-13
-8.12701e-12
1.65265e-12
-1.03376e-11
3.85552e-12
0
4.0163e-12
0
2.07839e-12
-3.23261e-10
3.6844e-11
-4.43773e-10
2.87788e-12
-2.48623e-10
1.87665e-11
-4.73108e-11
4.39645e-11
-8.12687e-10
3.93256e-11
-1.18396e-08
2.49687e-10
-1.02606e-07
1.56959e-09
-5.92151e-07
-3.70289e-10
-1.56063e-06
-1.88739e-08
1.90013e-09
-3.83806e-05
-3.51124e-16
5.30561e-16
7.66113e-15
8.57876e-16
2.06642e-15
2.29051e-16
9.47677e-16
5.32747e-16
1.02231e-16
3.07543e-16
8.52593e-17
4.7516e-16
9.79321e-18
4.58054e-16
-5.45209e-15
1.23899e-14
-9.88428e-12
1.96207e-12
-1.5107e-11
7.69891e-12
-1.66413e-11
6.16268e-12
-6.58024e-12
3.99425e-12
-1.1935e-11
1.97653e-12
-7.64613e-11
5.29156e-12
-5.34554e-10
4.84431e-12
-5.15132e-10
4.53249e-11
-2.88557e-10
0
-2.57039e-10
1.92111e-11
-2.45296e-10
2.40943e-11
-1.6411e-09
1.20821e-10
-3.75112e-08
1.07619e-09
-6.05361e-07
6.31566e-09
0
-1.32877e-06
1.31684e-18
6.86773e-17
1.77624e-16
1.11838e-16
6.29835e-17
7.135e-17
2.50728e-17
4.0559e-17
1.81953e-17
2.03806e-16
5.32605e-18
4.98801e-16
0
6.35757e-16
0
8.02473e-15
-4.14743e-12
3.34473e-13
-1.00689e-11
1.41168e-12
-3.62167e-12
1.28447e-12
-9.0335e-13
3.03278e-14
-7.63886e-12
3.52041e-12
-2.15452e-11
1.0378e-11
-1.38547e-11
0
-5.65968e-12
3.46841e-12
-7.97339e-12
5.02175e-13
-8.87966e-12
1.05592e-12
0
5.00904e-12
-4.30506e-10
7.19667e-11
-2.19559e-08
1.15614e-09
-7.17218e-08
3.10425e-12
0
-9.46237e-08
-7.73957e-19
4.94525e-18
2.63537e-18
7.24957e-18
1.80116e-18
4.43415e-18
1.13754e-18
1.24536e-17
-5.22469e-18
1.78232e-16
-3.53261e-17
5.22712e-16
-1.00591e-16
6.92088e-16
-7.91e-15
2.71779e-15
-1.40573e-13
0
-4.21448e-13
2.13203e-14
-1.21339e-13
7.54394e-14
-1.92241e-12
2.67494e-13
-3.08467e-11
9.31744e-12
-2.40187e-11
2.07016e-11
-3.98364e-12
1.00159e-11
-7.80671e-13
1.83248e-13
-7.59458e-13
5.45453e-14
-2.49768e-12
5.37164e-13
-2.04445e-11
1.07372e-11
0
7.89061e-11
-4.47598e-11
5.65286e-10
-2.50051e-08
5.73118e-09
1.2064e-08
-1.62737e-08
-9.42266e-20
3.21418e-19
-2.10354e-20
2.70834e-19
7.83552e-21
2.19467e-19
-9.22886e-19
5.33778e-18
-1.72843e-17
1.07363e-16
-5.01881e-17
3.72362e-16
-1.41637e-16
5.9062e-16
-5.02025e-16
7.19673e-16
-3.2009e-15
2.23718e-15
-1.03118e-14
8.21596e-15
-2.74303e-14
2.00447e-14
0
9.07476e-14
-1.48443e-11
9.32163e-13
-2.9026e-11
7.49594e-12
-3.63286e-13
3.35514e-12
-2.26127e-13
1.38212e-14
-3.33651e-13
6.46866e-14
-1.10419e-12
9.37121e-13
0
2.077e-11
0
9.65352e-11
-2.47848e-10
6.52022e-10
-1.68329e-08
1.17054e-08
2.11173e-08
-5.40286e-10
-4.78372e-21
2.24703e-20
-3.64153e-21
1.08624e-20
-8.90169e-21
1.76081e-20
-8.96089e-19
1.7667e-18
-1.14697e-17
3.24075e-17
-3.93448e-17
1.40613e-16
-7.54715e-17
2.96463e-16
-2.54183e-16
4.2668e-16
-2.9283e-15
3.17823e-15
-8.28624e-15
1.97464e-14
-2.13012e-14
4.56769e-14
-1.55226e-13
1.29906e-13
-1.20121e-12
0
-1.36864e-12
2.44612e-14
-5.71777e-14
4.74108e-14
-6.65098e-14
4.95008e-15
-8.19663e-14
4.70263e-14
0
8.78246e-13
0
8.51203e-12
-3.72412e-11
9.53163e-11
-1.51793e-09
1.26388e-09
-1.60251e-08
1.77233e-08
2.0696e-08
-1.08356e-08
-1.98684e-22
1.61982e-21
-2.63802e-22
4.66356e-22
-3.44544e-21
2.91174e-21
-2.92352e-19
4.26273e-19
-3.53627e-18
6.35339e-18
-1.46078e-17
3.0638e-17
-3.26742e-17
9.10043e-17
-1.40371e-16
2.33516e-16
-2.40775e-15
2.4925e-15
-1.73971e-14
2.43225e-14
-6.24038e-14
7.98165e-14
-6.24979e-14
1.18032e-13
-3.87786e-14
2.75345e-14
-3.57051e-14
9.21272e-15
-3.45354e-15
2.66992e-15
-1.00785e-14
2.46558e-15
-8.38984e-15
3.10045e-14
0
4.98334e-13
-3.37185e-12
7.83129e-12
-8.95675e-11
1.30561e-10
-7.53268e-09
2.38834e-09
-1.35512e-08
8.7937e-09
8.6233e-09
-7.61834e-09
-7.77732e-24
1.1797e-22
-1.27482e-23
2.11126e-23
-1.01763e-21
6.64752e-22
-6.73021e-20
8.65841e-20
-6.91631e-19
1.15762e-18
-3.6205e-18
5.72067e-18
-1.13653e-17
2.61214e-17
-5.5866e-17
1.0384e-16
-1.42321e-15
8.52506e-16
-1.70756e-14
1.52018e-14
-4.83988e-14
7.09162e-14
-3.61702e-14
9.56256e-14
-6.31159e-15
2.78011e-14
-2.31486e-15
4.55373e-15
-1.05615e-15
8.94887e-16
-2.01741e-15
8.47949e-16
0
1.22832e-14
0
1.74969e-13
0
2.71741e-12
0
3.80237e-11
-1.40711e-09
1.34424e-10
-1.29706e-09
4.02575e-10
3.89759e-09
-2.68237e-09
-3.07924e-25
8.71407e-24
-6.96543e-25
1.08782e-24
-2.2084e-22
1.33476e-22
-1.26536e-20
1.50544e-20
-1.12574e-19
2.00877e-19
-8.25342e-19
1.06571e-18
-4.12946e-18
7.78304e-18
-1.85536e-17
4.26125e-17
-4.53851e-16
2.30928e-16
-9.12016e-15
4.13912e-15
-2.32225e-14
2.48143e-14
-1.59401e-14
3.50529e-14
-4.07777e-15
1.39972e-14
-6.40665e-16
4.35799e-15
-3.08925e-16
5.54358e-16
-4.87638e-16
2.59933e-16
-6.10745e-16
3.12405e-15
0
3.82777e-14
0
3.32355e-13
-2.32251e-12
1.49773e-12
-1.78643e-11
1.16273e-11
-2.86842e-10
1.02169e-10
2.86423e-09
-1.37988e-09
-1.39549e-26
6.7242e-25
-5.54001e-26
7.38253e-26
-3.65383e-23
2.15443e-23
-1.94164e-21
2.1944e-21
-1.59657e-20
2.96965e-20
-1.47965e-19
1.71931e-19
-1.33555e-18
1.99731e-18
-8.00855e-18
1.96514e-17
-1.15311e-16
1.1588e-16
-1.86202e-15
6.48603e-16
-4.33312e-15
2.53543e-15
-3.52507e-15
3.50439e-15
-2.04689e-15
2.76325e-15
-2.50647e-16
2.55295e-15
-6.5934e-17
1.86284e-16
-1.28611e-16
5.37506e-17
-1.12675e-15
6.61686e-16
-2.72468e-15
7.99058e-15
0
4.86886e-14
-6.06833e-13
2.87073e-13
-9.94542e-12
3.11335e-12
-8.65703e-11
4.47568e-11
1.42782e-09
0
-8.38856e-28
5.64993e-26
-6.10608e-27
7.15189e-27
-4.83859e-24
2.99489e-24
-2.37395e-22
2.64616e-22
-1.82517e-21
3.57574e-21
-1.94949e-20
2.37201e-20
-4.82481e-19
5.22801e-19
-6.08074e-18
1.05449e-17
-3.30974e-17
6.24216e-17
-1.56221e-16
9.49885e-17
-3.01842e-16
1.36836e-16
-3.02668e-16
1.72314e-16
-3.55704e-16
2.07056e-16
-4.44649e-17
4.10776e-16
-9.16865e-18
2.31586e-17
-1.81817e-17
7.30972e-18
-2.92407e-16
9.91977e-17
-1.54061e-15
1.56919e-15
-1.55276e-15
1.40526e-14
-1.61502e-13
6.77567e-14
-1.81196e-12
7.20666e-13
0
1.22755e-11
4.85204e-10
0
-6.77558e-29
4.99586e-27
-7.57141e-28
8.85099e-28
-5.07801e-25
3.71411e-25
-2.15201e-23
2.59972e-23
-1.70944e-22
3.56984e-22
-2.76434e-21
3.31193e-21
-1.93034e-19
1.45439e-19
-3.88503e-18
3.99204e-18
-7.61619e-18
1.83885e-17
-1.12257e-17
1.63596e-17
-1.72186e-17
1.63422e-17
-1.84485e-17
1.86641e-17
-2.9279e-17
1.59384e-17
-3.5133e-18
2.14746e-17
-9.47535e-19
1.67758e-18
-1.72275e-18
8.94218e-19
-3.14829e-17
1.15165e-17
-4.7641e-16
2.31084e-16
-1.10002e-15
3.19562e-15
-7.44805e-15
1.96811e-14
-1.64124e-13
1.1601e-13
0
2.70889e-12
8.914e-11
8.84673e-11
-6.4362e-30
4.17246e-28
-9.4271e-29
1.17893e-28
-4.19819e-26
4.12572e-26
-1.4128e-24
2.13667e-24
-1.4089e-23
3.05598e-23
-4.48667e-22
4.78926e-22
-4.39773e-20
2.80309e-20
-7.41083e-19
5.86476e-19
-1.16458e-18
2.4373e-18
-1.64791e-18
3.65604e-18
-2.10842e-18
5.49892e-18
-1.73611e-18
5.9928e-18
-1.70948e-18
2.60703e-18
-2.08601e-19
1.44458e-18
-8.39078e-20
1.59122e-19
-1.33271e-19
1.14151e-19
-2.1016e-18
1.18605e-18
-4.04819e-17
2.51745e-17
-3.94738e-16
4.7928e-16
-3.43065e-16
5.40971e-15
-2.69525e-15
1.90151e-14
1.52725e-12
7.37583e-13
1.5683e-11
6.84572e-11
-6.1462e-31
3.27212e-29
-1.07357e-29
1.45715e-29
-2.8745e-27
4.02734e-27
-7.58798e-26
1.57396e-25
-1.04152e-24
2.32506e-24
-6.15731e-23
5.96872e-23
-4.07389e-21
3.006e-21
-4.58445e-20
4.39812e-20
-1.54873e-19
2.44963e-19
-4.20018e-19
9.43731e-19
-5.2524e-19
2.23191e-18
-2.90998e-19
2.50982e-18
-1.3883e-19
6.01296e-19
-1.35906e-20
1.60771e-19
-6.30794e-21
2.19849e-20
-7.97269e-21
1.55355e-20
-8.64516e-20
1.14089e-19
-1.0838e-18
2.48608e-18
1.01841e-18
5.0356e-17
3.51217e-16
8.25038e-16
1.9429e-14
5.63857e-15
5.92362e-13
1.00714e-13
2.11012e-12
1.32343e-11
-4.72586e-32
2.55629e-30
-9.6312e-31
1.38829e-30
-1.69513e-28
3.3125e-28
-3.69759e-27
1.09105e-26
-6.79097e-26
1.63529e-25
-5.20807e-24
5.72067e-24
-2.13538e-22
2.42416e-22
-2.56561e-21
3.58439e-21
-1.80352e-20
3.05843e-20
-7.67069e-20
1.82381e-19
-9.7062e-20
4.98767e-19
-3.55908e-20
5.83671e-19
-9.15528e-21
1.02621e-19
-8.7853e-22
2.23355e-20
-2.78876e-22
3.97765e-21
-1.18774e-22
2.27643e-21
2.09199e-21
1.10647e-20
1.43313e-19
2.52676e-19
5.24973e-18
5.51077e-18
1.26411e-16
9.28197e-17
2.72471e-15
1.15175e-15
9.03852e-14
5.72116e-15
2.10255e-13
1.87008e-12
-2.11395e-33
2.00143e-31
-5.75845e-32
9.19968e-32
-8.22453e-30
2.23295e-29
-1.58131e-28
7.15112e-28
-3.5275e-27
1.10126e-26
-2.77137e-25
4.7193e-25
-1.01088e-23
2.07022e-23
-1.57608e-22
3.72176e-22
-1.39933e-21
3.80547e-21
-5.54424e-21
1.95614e-20
-6.01776e-21
4.47542e-20
-1.44168e-21
5.15683e-20
-1.48721e-22
1.07773e-20
4.42928e-23
3.20262e-21
4.34196e-23
8.03942e-22
7.84512e-23
3.49936e-22
9.95731e-22
1.12425e-21
3.62208e-20
2.66396e-20
1.08659e-18
6.41413e-19
2.33753e-17
1.09363e-17
3.34383e-16
1.30488e-16
7.68583e-15
9.26498e-16
1.20852e-14
1.93054e-13
-1.11119e-35
1.55019e-32
-1.97509e-33
4.76976e-33
-2.85004e-31
1.29865e-30
-4.98755e-30
4.44058e-29
-1.19985e-28
7.21417e-28
-9.59446e-27
3.80231e-26
-3.44245e-25
1.93155e-24
-5.09544e-24
3.86062e-23
-2.27555e-23
3.57709e-22
1.63073e-23
1.38845e-21
2.02026e-22
2.67773e-21
4.62042e-22
3.06584e-21
9.45781e-23
1.02732e-21
5.05167e-23
4.47537e-22
2.09116e-23
1.48232e-22
2.39621e-23
5.18765e-23
1.59417e-22
1.13368e-22
5.90122e-21
2.97753e-21
1.87112e-19
8.91303e-20
3.90432e-18
1.64211e-18
5.30178e-17
1.78108e-17
6.56659e-16
1.73673e-16
1.07498e-15
1.26873e-14
1.58068e-35
1.18313e-33
-1.23011e-35
2.37144e-34
-3.18398e-33
7.32588e-32
-2.18623e-32
2.6815e-30
7.81346e-31
4.60695e-29
1.47214e-28
2.92537e-27
1.53912e-26
1.69502e-25
4.89851e-25
3.34528e-24
5.90918e-24
2.66119e-23
2.82766e-23
9.49296e-23
6.19698e-23
1.83101e-22
9.01953e-23
2.17185e-22
2.54203e-23
1.04661e-22
1.44209e-23
5.62208e-23
5.46268e-24
2.11578e-23
5.02233e-24
7.13608e-24
2.03614e-23
1.20199e-23
8.78374e-22
3.63293e-22
3.45957e-20
1.53525e-20
7.97441e-19
3.74961e-19
9.93288e-18
4.1291e-18
9.71809e-17
3.03638e-17
2.72284e-16
1.09484e-15
2.50697e-36
8.90063e-35
5.29458e-37
1.22742e-35
3.82287e-34
4.18234e-33
2.18853e-32
1.60035e-31
5.77176e-31
2.88419e-30
5.23066e-29
2.00981e-28
4.05421e-27
1.23119e-26
9.96492e-26
2.38469e-25
9.44596e-25
1.82232e-24
3.89244e-24
6.70571e-24
7.91403e-24
1.3388e-23
1.07289e-23
1.64286e-23
4.28813e-24
9.63337e-24
2.572e-24
5.55742e-24
9.85078e-25
2.19264e-24
8.45999e-25
8.47169e-25
2.54121e-24
1.40418e-24
1.31261e-22
4.90881e-23
7.23183e-21
3.0307e-21
2.33441e-19
1.18134e-19
3.09898e-18
1.61901e-18
2.53494e-17
1.06717e-17
7.04452e-17
2.24748e-16
2.82755e-37
6.59679e-36
5.63022e-38
6.36582e-37
4.94291e-35
2.36707e-34
2.62457e-33
9.38587e-33
6.6138e-32
1.74221e-31
6.03579e-30
1.2416e-29
4.60511e-28
7.63512e-28
1.08283e-26
1.50426e-26
9.73561e-26
1.18619e-25
3.90685e-25
4.50265e-25
7.85415e-25
9.15384e-25
1.03702e-24
1.14741e-24
5.08313e-25
7.24802e-25
3.09246e-25
4.22454e-25
1.26578e-25
1.73514e-25
1.11481e-25
7.94615e-26
3.65615e-25
1.86846e-25
2.09405e-23
7.62339e-24
1.60383e-21
6.17598e-22
8.23473e-20
3.88211e-20
1.41459e-18
7.47819e-19
1.07749e-17
5.18267e-18
2.46664e-17
7.04905e-17
2.76124e-38
4.81135e-37
4.33034e-39
3.27469e-38
4.2586e-36
1.31348e-35
2.25718e-34
5.39528e-34
5.64001e-33
1.02048e-32
5.21253e-31
7.38766e-31
3.91827e-29
4.52746e-29
9.15221e-28
9.0539e-28
8.16161e-27
7.30267e-27
3.24921e-26
2.80415e-26
6.51448e-26
5.74805e-26
8.50049e-26
7.30557e-26
4.60222e-26
4.75313e-26
2.8147e-26
2.79332e-26
1.24204e-26
1.19145e-26
1.13392e-26
6.0881e-27
6.29096e-26
2.87864e-26
3.7165e-24
1.35038e-24
3.49738e-22
1.20486e-22
2.70665e-20
1.06176e-20
6.57016e-19
2.99693e-19
5.40141e-18
2.49367e-18
9.99277e-18
2.63737e-17
2.49039e-39
3.44885e-38
2.89559e-40
1.67848e-39
3.09789e-37
7.14668e-37
1.6647e-35
3.04208e-35
4.17879e-34
5.84023e-34
3.91027e-32
4.32394e-32
2.9201e-30
2.65977e-30
6.78289e-29
5.34232e-29
6.02384e-28
4.32594e-28
2.38355e-27
1.66632e-27
4.78121e-27
3.43459e-27
6.18785e-27
4.41182e-27
3.56829e-27
2.95783e-27
2.20023e-27
1.76618e-27
1.03303e-27
7.69982e-28
9.76885e-28
4.50426e-28
1.19367e-26
5.06038e-27
7.11603e-25
2.51676e-25
7.07633e-23
2.14155e-23
7.11056e-21
2.18527e-21
2.45025e-19
8.64767e-20
2.44164e-18
9.43672e-19
3.98591e-18
1.06568e-17
2.14076e-40
2.42611e-39
1.79356e-41
8.63301e-41
2.04035e-38
3.8171e-38
1.12522e-36
1.68332e-36
2.83658e-35
3.27204e-35
2.69164e-33
2.47275e-33
2.00362e-31
1.52884e-31
4.62722e-30
3.07634e-30
4.07932e-29
2.48949e-29
1.60697e-28
9.60151e-29
3.22574e-28
1.98593e-28
4.14994e-28
2.56963e-28
2.52167e-28
1.77489e-28
1.56336e-28
1.0742e-28
8.08707e-29
4.72357e-29
8.28288e-29
3.89711e-29
2.35682e-27
9.55344e-28
1.3648e-25
4.54496e-26
1.28282e-23
3.40113e-24
1.44306e-21
3.5241e-22
6.62442e-20
1.75279e-20
8.50856e-19
2.51027e-19
1.31499e-18
4.05458e-18
1.78992e-41
1.67153e-40
1.06655e-42
4.4964e-42
1.24991e-39
2.00255e-39
7.10485e-38
9.14228e-38
1.80117e-36
1.79466e-36
1.73025e-34
1.37792e-34
1.28443e-32
8.543e-33
2.95413e-31
1.72028e-31
2.5881e-30
1.39031e-30
1.0152e-29
5.36071e-30
2.03611e-29
1.10984e-29
2.60558e-29
1.44118e-29
1.65094e-29
1.0186e-29
1.02449e-29
6.21101e-30
6.47762e-30
2.75832e-30
9.16697e-30
4.64068e-30
4.67535e-28
1.81234e-28
2.49578e-26
7.70864e-27
2.07186e-24
4.8469e-25
2.40406e-22
4.92472e-23
1.34997e-20
2.84735e-21
2.19182e-19
4.96116e-20
3.29423e-19
1.28312e-18
1.45261e-42
1.12522e-41
6.24624e-44
2.39352e-43
7.24382e-41
1.03285e-40
4.24487e-39
4.87434e-39
1.08067e-37
9.64045e-38
1.04974e-35
7.49181e-36
7.7716e-34
4.64694e-34
1.77998e-32
9.34718e-33
1.5497e-31
7.53348e-32
6.04794e-31
2.89758e-31
1.2107e-30
5.98813e-31
1.54163e-30
7.77597e-31
1.00788e-30
5.58231e-31
6.25118e-31
3.41028e-31
4.58787e-31
1.57817e-31
1.65847e-30
7.34297e-31
8.98599e-29
3.24487e-29
4.27397e-27
1.21391e-27
2.97885e-25
6.14476e-26
3.4509e-23
5.98856e-24
2.30214e-21
4.11642e-22
4.46952e-20
8.33845e-21
6.46294e-20
3.19224e-19
1.12857e-43
7.38295e-43
3.65588e-45
1.30991e-44
4.00362e-42
5.2447e-42
2.4148e-40
2.55258e-40
6.16503e-39
5.07624e-39
6.03545e-37
3.98184e-37
4.45356e-35
2.46649e-35
1.0152e-33
4.94634e-34
8.78482e-33
3.96779e-33
3.4094e-32
1.51876e-32
6.79806e-32
3.1244e-32
8.61358e-32
4.04345e-32
5.7552e-32
2.92987e-32
3.58478e-32
1.7832e-32
2.73806e-32
9.25423e-33
3.13277e-31
1.18441e-31
1.57778e-29
5.08032e-30
6.67906e-28
1.71285e-28
3.73748e-26
6.77014e-27
4.07355e-24
5.72104e-25
3.34573e-22
4.97049e-23
7.79728e-21
1.25112e-21
1.0393e-20
6.28045e-20
8.37612e-45
4.71084e-44
2.14979e-46
7.38293e-46
2.11511e-43
2.62744e-43
1.30843e-41
1.31427e-41
3.34261e-40
2.62355e-40
3.29004e-38
2.07277e-38
2.41813e-36
1.28019e-36
5.4819e-35
2.55525e-35
4.71102e-34
2.03606e-34
1.81593e-33
7.7376e-34
3.59956e-33
1.58009e-33
4.5389e-33
2.03096e-33
3.07371e-33
1.47694e-33
1.96166e-33
8.90607e-34
1.66353e-33
5.87286e-34
4.80652e-32
1.5163e-32
2.35284e-30
6.49917e-31
9.14699e-29
2.09279e-29
4.06748e-27
6.7227e-28
3.69245e-25
4.17855e-26
3.83172e-23
4.49231e-24
1.16434e-21
1.58659e-22
1.42073e-21
1.00295e-20
5.95886e-46
2.91655e-45
1.2706e-47
4.27287e-47
1.06864e-44
1.30205e-44
6.74701e-43
6.66324e-43
1.71967e-41
1.33329e-41
1.69768e-39
1.05919e-39
1.24087e-37
6.5135e-38
2.79434e-36
1.29202e-36
2.38169e-35
1.02069e-35
9.10239e-35
3.84208e-35
1.78927e-34
7.76598e-35
2.24469e-34
9.87935e-35
1.52851e-34
7.1716e-35
1.04875e-34
4.26839e-35
1.10659e-34
4.06496e-35
5.64871e-33
1.49132e-33
2.83979e-31
6.78287e-32
1.07907e-29
2.27214e-30
4.09829e-28
6.89978e-29
2.71514e-26
2.88876e-27
3.31124e-24
3.19481e-25
1.42934e-22
1.65092e-23
1.72897e-22
1.35734e-21
4.05709e-47
1.74823e-46
7.53285e-49
2.51655e-48
5.17978e-46
6.40276e-46
3.30907e-44
3.33336e-44
8.37617e-43
6.67884e-43
8.26919e-41
5.32745e-41
5.99888e-39
3.25804e-39
1.3399e-37
6.41358e-38
1.1308e-36
5.01446e-37
4.27527e-36
1.86545e-36
8.30729e-36
3.72196e-36
1.03575e-35
4.67037e-36
7.03933e-36
3.36658e-36
5.34989e-36
1.97766e-36
8.02592e-36
2.89242e-36
5.29317e-34
1.29472e-34
2.82804e-32
6.34167e-33
1.13999e-30
2.40916e-31
4.3073e-29
8.31179e-30
2.04065e-27
2.66385e-28
2.42046e-25
2.37481e-26
1.46215e-23
1.56161e-24
1.95762e-23
1.63676e-22
2.62136e-48
1.01288e-47
4.43543e-50
1.48689e-49
2.42002e-47
3.13453e-47
1.54441e-45
1.64977e-45
3.85985e-44
3.30722e-44
3.79742e-42
2.64537e-42
2.72792e-40
1.60718e-40
6.03041e-39
3.13595e-39
5.02719e-38
2.42278e-38
1.87521e-37
8.88977e-38
3.5903e-37
1.74638e-37
4.44435e-37
2.15495e-37
2.99327e-37
1.5351e-37
2.51694e-37
8.93728e-38
6.04587e-37
2.07618e-37
4.4348e-35
1.15515e-35
2.52606e-33
5.97247e-34
1.16121e-31
2.69371e-32
5.00265e-30
1.13522e-30
1.97156e-28
3.51737e-29
1.91768e-26
2.38584e-27
1.38455e-24
1.57205e-25
2.1376e-24
1.80492e-23
1.58838e-49
5.66887e-49
2.54552e-51
8.68159e-51
1.09415e-48
1.53217e-48
6.87714e-47
8.10158e-47
1.68543e-45
1.62378e-45
1.64606e-43
1.30065e-43
1.1672e-41
7.84333e-42
2.54895e-40
1.51524e-40
2.09445e-39
1.1553e-39
7.68705e-39
4.1741e-39
1.44508e-38
8.05641e-39
1.77363e-38
9.7512e-39
1.1759e-38
6.83623e-39
9.87715e-39
3.95023e-39
4.48931e-38
1.53523e-38
3.6053e-36
1.05762e-36
2.15121e-34
5.64721e-35
1.15896e-32
2.97893e-33
5.85174e-31
1.45644e-31
2.29874e-29
5.01358e-30
1.82959e-27
2.88826e-28
1.30459e-25
1.65884e-26
2.21914e-25
1.80871e-24
8.96671e-51
3.06775e-50
1.39668e-52
4.95855e-52
4.78378e-50
7.49431e-50
2.92916e-48
3.95798e-48
6.98875e-47
7.92753e-47
6.74691e-45
6.34916e-45
4.71296e-43
3.79729e-43
1.01373e-41
7.25688e-42
8.19047e-41
5.45489e-41
2.95076e-40
1.93806e-40
5.43029e-40
3.66892e-40
6.60464e-40
4.3471e-40
4.28648e-40
2.98904e-40
3.60371e-40
1.71078e-40
2.96574e-39
1.05576e-39
2.63842e-37
8.24051e-38
1.63635e-35
4.56135e-36
1.00864e-33
2.6695e-34
5.70164e-32
1.40342e-32
2.44421e-30
5.54818e-31
1.72878e-28
3.00092e-29
1.11745e-26
1.50679e-27
2.01632e-26
1.58386e-25
4.70576e-52
1.60901e-51
7.22984e-54
2.7541e-53
2.01631e-51
3.67361e-51
1.19234e-49
1.92775e-49
2.75281e-48
3.85758e-48
2.619e-46
3.08393e-46
1.7937e-44
1.82833e-44
3.79426e-43
3.4536e-43
3.01025e-42
2.55729e-42
1.06231e-41
8.92595e-42
1.90909e-41
1.65522e-41
2.30071e-41
1.9169e-41
1.45471e-41
1.28926e-41
1.22469e-41
7.28461e-42
1.55785e-40
5.82553e-41
1.46406e-38
4.59608e-39
9.52826e-37
2.65939e-37
6.42322e-35
1.6296e-35
3.89444e-33
8.87178e-34
1.87222e-31
3.97643e-32
1.24211e-29
2.08277e-30
7.42155e-28
9.94202e-29
1.46654e-27
1.13275e-26
2.26491e-53
8.21356e-53
3.45948e-55
1.47865e-54
8.1419e-53
1.80565e-52
4.61209e-51
9.37499e-51
1.02501e-49
1.87408e-49
9.55427e-48
1.49309e-47
6.40214e-46
8.77128e-46
1.32852e-44
1.63652e-44
1.03266e-43
1.19308e-43
3.56672e-43
4.08813e-43
6.25076e-43
7.41912e-43
7.4696e-43
8.38756e-43
4.58332e-43
5.50377e-43
3.86216e-43
3.05536e-43