/*--------------------------------*- C++ -*----------------------------------*\
  =========                 |
  \\      /  F ield         | OpenFOAM: The Open Source CFD Toolbox
   \\    /   O peration     | Website:  https://openfoam.org
    \\  /    A nd           | Version:  13
     \\/     M anipulation  |
\*---------------------------------------------------------------------------*/
FoamFile
{
    format      ascii;
    class       volScalarField;
    location    "0.65";
    object      alpha.water;
}
// * * * * * * * * * * * * * * * * * * * * * * * * * * * * * * * * * * * * * //

dimensions      [];

internalField   nonuniform List<scalar> 
2268
(
1
1
1
1
1
1
1
1
1
1
1
1
1
1
1
1
0.999998
0.985139
0.940149
0.951161
0.998521
0.99853
0.998519
1
1
1
1
1
1
1
1
1
1
1
1
1
1
1
1
0.999995
0.998165
0.960536
0.94468
0.970499
0.995332
0.997949
1
1
1
1
1
1
1
1
1
1
1
1
1
1
1
1
1
1
0.99865
0.945025
0.942022
0.942173
0.993537
1
1
1
1
1
1
1
1
1
1
1
1
1
1
1
1
1
1
1
0.996493
0.942022
0.942353
0.992617
1
1
1
1
1
1
1
1
1
1
1
1
1
1
1
1
1
1
1
0.999999
0.974248
0.992482
0.999993
1
1
1
1
1
0.999999
0.999996
0.999994
0.999997
0.999998
1
1
1
1
1
1
1
1
1
1
0.999999
1
0.999995
1
1
0.999991
0.999999
0.999987
0.999897
0.999585
0.999716
0.999904
0.999971
0.999996
1
1
1
1
1
1
1
1
1
1
1
0.999941
0.981751
0.953685
0.919987
0.894402
0.895147
0.910491
0.956208
0.991005
0.99812
0.999997
0.999997
0.999997
0.999995
0.999998
1
1
1
1
1
1
1
1
0.999938
0.665514
0.99997
0.99997
0.99997
0.99997
0.773685
0.609868
0.610367
0.887565
0.891807
0.892284
0.892638
0.892647
0.89641
0.897258
0.898392
0.899566
0.899682
0.816208
0.661134
0.99997
0.99997
0.99997
0.99997
0.99997
0.776015
0.788944
0.883971
0.851716
0.712344
0.721748
0.758021
0.806093
0.86354
0.897334
0.902418
0.904828
0.904877
0.476555
0.999969
0.999639
0.999966
0.99997
0.999969
0.81126
0.826084
0.749064
0.127483
0.0659446
0.0812376
0.10191
0.147415
0.263068
0.501995
0.779605
0.904589
0.90488
0.437581
0.907849
0.998533
0.999949
0.999963
0.999966
0.765851
0.799117
0.474206
0.00367252
0.000654162
0.000349302
0.000779331
0.00149623
0.00474231
0.0145716
0.243323
0.904553
0.904877
0.438506
0.831731
0.999263
0.999786
0.999896
0.999946
0.844284
0.658413
0.0385388
0.000776824
0.000193495
0.00026574
0.000711706
0.000484097
0.00152987
0.00506082
0.0334989
0.567004
0.904838
0.603298
0.949867
0.999143
0.999285
0.999235
0.999724
0.997083
0.546477
0.00912294
0.00057344
0.000125037
8.54331e-05
0.000143925
0.000212395
0.000489672
0.00175131
0.00620834
0.302833
0.904613
0.985777
0.999444
0.999361
0.999134
0.937463
0.936451
0.98841
0.698376
0.0368942
0.00284254
0.000115216
7.84308e-05
7.29777e-05
9.22034e-05
0.000162364
0.000606305
0.00400782
0.233612
0.903696
0.999907
0.999769
0.999606
0.998383
0.601762
0.467958
0.946473
0.893375
0.09089
0.00121225
0.000194939
7.30575e-05
6.71788e-05
6.60514e-05
8.12879e-05
0.000199102
0.00194529
0.189298
0.900722
0.368937
0.327761
0.299907
0.312133
0.355091
0.44414
0.581264
0.730725
0.854355
0.946644
0.999999
1
1
1
1
1
0.999999
1
1
1
1
1
0.999936
3.74438e-06
1.59273e-05
0.00297285
0.0286469
0.0617652
0.0871658
0.0981419
0.121574
0.192101
0.313703
0.480758
0.650564
0.770464
0.884033
0.994778
1
1
1
0.999998
0.999975
0.999989
0.999995
0.999932
2.65988e-06
4.66197e-06
2.8358e-09
1.72411e-09
5.09365e-09
2.32071e-08
3.72026e-08
5.06807e-10
2.57411e-09
2.25458e-08
0.00507402
0.0560673
0.124741
0.229088
0.36887
0.541846
0.651359
0.720905
0.819978
0.897397
0.933363
0.956205
0.981311
2.70251e-07
9.59079e-07
4.54958e-08
1.72679e-09
6.24046e-09
2.0186e-08
3.81407e-10
1.38903e-10
3.58619e-10
2.49173e-09
5.55453e-09
7.03801e-09
9.76846e-09
3.52522e-08
2.14109e-07
1.06601e-06
0.0292358
0.0497248
0.0877868
0.152768
0.224994
0.31542
0.53395
1.05891e-08
1.80041e-08
4.5729e-08
3.40877e-09
2.56657e-10
1.17446e-09
4.21783e-11
1.3712e-10
4.65008e-10
5.76735e-09
6.07372e-09
6.53512e-09
7.0372e-09
9.76947e-09
4.54108e-08
2.1404e-07
1.0596e-06
6.01839e-06
3.39599e-05
0.000179022
0.000892957
0.00447054
0.245854
1.61721e-10
1.02755e-09
6.9106e-09
1.45714e-09
7.58212e-11
1.39562e-11
1.38649e-11
3.98025e-11
5.21849e-08
4.26188e-07
4.84151e-07
3.4539e-07
6.39651e-08
2.63676e-06
1.13169e-05
1.1034e-05
8.19513e-06
4.79669e-06
1.14304e-05
4.27672e-05
0.000245159
0.00142701
0.071304
9.13333e-12
4.90792e-11
2.59919e-11
1.03471e-10
1.68209e-11
1.21984e-11
1.34901e-11
1.38649e-11
1.06646e-07
4.87032e-07
4.87504e-07
3.93548e-07
6.09446e-08
4.10795e-07
5.89736e-06
9.77477e-06
3.78269e-06
4.07389e-06
9.64887e-06
1.24262e-05
8.31712e-05
0.00167339
0.00291799
2.18417e-12
2.40427e-12
2.72487e-12
2.80547e-12
5.51794e-12
1.20624e-11
1.49719e-11
3.54541e-11
4.4512e-08
3.1618e-07
3.20658e-07
1.77207e-08
5.7534e-08
3.51666e-07
3.6452e-07
1.03459e-07
1.52446e-08
2.20414e-07
5.61852e-07
2.04076e-06
6.74544e-05
0.000506881
0.00063496
2.52067e-13
3.86926e-13
2.82132e-13
5.35512e-13
4.53624e-12
1.20191e-11
1.63286e-11
8.39249e-11
2.48465e-09
7.98822e-09
1.32274e-08
6.68147e-09
3.55714e-07
6.20998e-07
4.45364e-07
3.1907e-10
2.34984e-09
7.69514e-09
5.1552e-08
8.74983e-07
1.93643e-05
0.000208039
0.00049059
1.59061e-14
2.19767e-14
1.49986e-14
2.08456e-13
3.07537e-12
9.71849e-12
1.4662e-11
2.86178e-11
3.72139e-11
1.44081e-10
4.73522e-10
1.01947e-09
1.64008e-07
5.50443e-07
2.92237e-07
1.31888e-10
3.26544e-10
2.73449e-09
3.14795e-07
9.72088e-07
2.60619e-06
0.0001655
0.000463193
9.62186e-16
7.42376e-16
9.76165e-16
7.25682e-14
1.27768e-12
4.95607e-12
9.09399e-12
1.33419e-11
7.20931e-11
3.88522e-10
8.49473e-10
3.1809e-09
1.05198e-08
2.72716e-08
1.81233e-08
6.3265e-11
1.31933e-10
6.35537e-09
1.22701e-07
3.07738e-07
3.36728e-06
0.000247158
0.000448827
6.31398e-17
2.79056e-17
1.43261e-16
1.97513e-14
3.22736e-13
1.46281e-12
3.51773e-12
6.89169e-12
5.91879e-11
4.99352e-10
1.64901e-09
2.84205e-09
1.34701e-09
1.30121e-10
6.02489e-11
2.91514e-11
7.61528e-11
2.04503e-09
1.52774e-08
2.02726e-07
2.15592e-05
0.000203677
0.000239508
4.2945e-18
1.13166e-18
3.06985e-17
4.43281e-15
6.38349e-14
3.06302e-13
1.05637e-12
3.15234e-12
2.73745e-11
3.74611e-10
1.51364e-09
2.28267e-09
7.48569e-10
6.72265e-11
1.32984e-11
9.5486e-12
5.18892e-11
8.33357e-10
1.33319e-08
2.68374e-07
8.99473e-06
2.99391e-05
3.97024e-05
2.98436e-19
5.07323e-20
6.32033e-18
8.43909e-16
1.15705e-14
5.86134e-14
3.15559e-13
1.3059e-12
7.31474e-12
1.52172e-10
8.01551e-10
1.15635e-09
3.8929e-10
7.41674e-11
1.10796e-11
3.8092e-12
2.39248e-11
2.93581e-10
4.83259e-09
8.03947e-08
3.33748e-07
1.7648e-06
8.71285e-06
2.19702e-20
2.93387e-21
1.10798e-18
1.35007e-16
1.8451e-15
9.99547e-15
8.30869e-14
5.35332e-13
2.97195e-12
3.26742e-11
1.61685e-10
2.26328e-10
1.14886e-10
5.1756e-11
5.05219e-12
1.08805e-12
8.12256e-12
7.13425e-11
5.88331e-10
4.03349e-09
4.24296e-08
3.46017e-07
3.93895e-06
1.8971e-21
2.633e-22
1.67677e-19
1.79271e-17
2.43183e-16
1.41014e-15
2.01827e-14
2.75959e-13
1.64717e-12
5.03755e-12
1.10653e-11
1.37425e-11
1.35899e-11
1.56658e-11
9.99464e-13
1.76065e-13
1.66971e-12
1.83081e-11
9.171e-11
5.71886e-10
6.71112e-09
7.65306e-08
2.62457e-06
1.8712e-22
3.45109e-23
2.25874e-20
1.92266e-18
2.6049e-17
1.81827e-16
5.54071e-15
1.26004e-13
6.40174e-13
7.78113e-13
6.49141e-13
6.79619e-13
8.18317e-13
1.41353e-12
8.54959e-14
2.14341e-14
2.02617e-13
3.8889e-12
3.25451e-11
1.13586e-10
9.03193e-10
2.21922e-08
9.81557e-07
1.67717e-23
5.41022e-24
2.73199e-21
1.6495e-19
2.29273e-18
2.48092e-17
1.3005e-15
2.99674e-14
1.28583e-13
1.46204e-13
1.5699e-13
1.57182e-13
9.1973e-14
6.33262e-14
6.0396e-15
2.88961e-15
2.05807e-14
5.03928e-13
8.51663e-12
5.55097e-11
1.58826e-10
1.41236e-09
2.08564e-08
1.27455e-24
8.39202e-25
2.91654e-22
1.18964e-20
1.69964e-19
3.32994e-18
1.87811e-16
3.18215e-15
1.48057e-14
3.61728e-14
6.49067e-14
6.85359e-14
2.13551e-14
5.56234e-15
7.11551e-16
4.4494e-16
2.2432e-15
5.30661e-14
1.16249e-12
1.5028e-11
4.26352e-11
2.22777e-10
3.00388e-09
9.29733e-26
1.02741e-25
2.62039e-23
7.79217e-22
1.11067e-20
3.60399e-19
1.69773e-17
2.37331e-16
1.7201e-15
8.19764e-15
1.93179e-14
2.13082e-14
4.36701e-15
8.18844e-16
1.26107e-16
7.25061e-17
2.65248e-16
5.85283e-15
1.2843e-13
2.09288e-12
1.54395e-11
3.40551e-11
4.01909e-10
6.96005e-27
8.29975e-27
1.85822e-24
4.78809e-23
6.84396e-22
3.11127e-20
1.35627e-18
2.23995e-17
2.23684e-16
1.18072e-15
2.75289e-15
3.05316e-15
5.59633e-16
1.27553e-16
2.64719e-17
1.20192e-17
3.17145e-17
6.77127e-16
1.5284e-14
2.49494e-13
2.94261e-12
7.45275e-12
4.88825e-11
5.24275e-28
4.38021e-28
1.01519e-25
2.73766e-24
4.22152e-23
2.52647e-21
1.23598e-19
2.42304e-18
2.37596e-17
9.79279e-17
1.86586e-16
2.01629e-16
5.38797e-17
1.91444e-17
5.40256e-18
1.92099e-18
3.60619e-18
8.5299e-17
2.29644e-15
3.77917e-14
4.05412e-13
3.00556e-12
6.72799e-12
3.9033e-29
1.91615e-29
4.92397e-27
1.50823e-25
2.63128e-24
2.01975e-22
1.15388e-20
2.29028e-19
1.85783e-18
6.17894e-18
1.06761e-17
1.18101e-17
5.48301e-18
2.68738e-18
9.17067e-19
2.90062e-19
4.24148e-19
1.1878e-17
4.36503e-16
8.62165e-15
8.59704e-14
6.82946e-13
4.23993e-12
2.86955e-30
8.60078e-31
2.47052e-28
8.32109e-27
1.60408e-25
1.41051e-23
8.91393e-22
1.70337e-20
1.21879e-19
4.022e-19
7.31646e-19
8.57139e-19
5.47833e-19
3.09019e-19
1.15437e-19
3.94101e-20
5.44641e-20
1.77685e-18
9.43454e-17
2.78134e-15
3.21486e-14
2.15398e-13
1.66002e-12
2.08576e-31
4.05054e-32
1.29014e-29
4.60087e-28
9.32862e-27
8.2267e-25
5.32153e-23
1.02294e-21
7.44273e-21
2.62692e-20
5.04837e-20
6.16239e-20
4.44305e-20
2.60715e-20
1.03614e-20
4.30785e-21
7.77835e-21
2.9319e-19
2.11377e-17
1.00434e-15
1.57334e-14
1.05787e-13
6.10752e-13
1.49769e-32
1.94959e-33
6.76219e-31
2.52078e-29
5.19156e-28
4.40833e-26
2.79228e-24
5.51837e-23
4.25392e-22
1.5708e-21
3.10789e-21
3.89284e-21
2.88057e-21
1.70559e-21
7.21022e-22
3.59512e-22
1.24515e-21
5.45253e-20
4.63036e-18
3.30582e-16
7.45617e-15
5.74027e-14
2.63149e-13
1.06075e-33
9.52979e-35
3.50838e-32
1.36363e-30
2.82167e-29
2.3636e-27
1.47491e-25
2.94762e-24
2.33232e-23
8.76801e-23
1.76619e-22
2.2584e-22
1.69122e-22
1.0187e-22
4.49865e-23
2.62113e-23
2.24608e-22
1.08757e-20
9.4557e-19
8.70015e-17
2.81803e-15
2.72516e-14
1.20304e-13
7.39854e-35
4.76381e-36
1.79957e-33
7.28364e-32
1.51386e-30
1.27322e-28
7.93756e-27
1.58903e-25
1.26398e-24
4.79422e-24
9.79867e-24
1.27487e-23
9.75996e-24
6.01278e-24
2.69564e-24
2.18246e-24
4.4029e-23
2.15489e-21
1.74331e-19
1.7767e-17
7.7311e-16
9.78328e-15
4.93395e-14
5.07273e-36
2.4632e-37
9.12415e-35
3.84102e-33
8.01813e-32
6.78186e-30
4.23712e-28
8.4947e-27
6.77337e-26
2.5878e-25
5.34822e-25
7.0485e-25
5.51942e-25
3.46114e-25
1.55377e-25
2.56229e-25
8.89135e-24
4.06552e-22
2.88634e-20
3.01157e-18
1.60815e-16
2.58291e-15
1.6155e-14
3.41147e-37
1.3313e-38
4.57041e-36
1.99848e-34
4.18577e-33
3.55281e-31
2.22037e-29
4.45545e-28
3.55938e-27
1.36667e-26
2.84478e-26
3.77981e-26
3.00967e-26
1.90758e-26
8.95463e-27
4.15553e-26
1.75623e-24
7.20725e-23
4.28024e-21
4.45434e-19
2.83942e-17
5.44925e-16
4.14487e-15
2.2447e-38
7.53048e-40
2.26212e-37
1.02556e-35
2.15266e-34
1.83105e-32
1.14268e-30
2.29092e-29
1.8299e-28
7.03821e-28
1.46972e-27
1.95979e-27
1.57688e-27
1.0025e-27
5.52386e-28
7.38021e-27
3.17349e-25
1.16876e-23
5.5407e-22
5.38274e-20
4.29538e-18
9.96468e-17
8.54109e-16
1.44138e-39
4.4247e-41
1.10742e-38
5.19241e-37
1.09129e-35
9.29576e-34
5.78621e-32
1.157e-30
9.21783e-30
3.53939e-29
7.38416e-29
9.83574e-29
7.95129e-29
5.02262e-29
3.96152e-29
1.1252e-27
4.85934e-26
1.66285e-24
6.24239e-23
4.8816e-21
5.05229e-19
1.56432e-17
1.45611e-16
9.0103e-41
2.66832e-42
5.3717e-40
2.59596e-38
5.45964e-37
4.65596e-35
2.88844e-33
5.7526e-32
4.56056e-31
1.74219e-30
3.61557e-30
4.78687e-30
3.86517e-30
2.40852e-30
3.24589e-30
1.33184e-28
6.03928e-27
2.05713e-25
6.70967e-24
3.61793e-22
4.42896e-20
2.01731e-18
2.13992e-17
5.47024e-42
1.62556e-43
2.58756e-41
1.2832e-39
2.69987e-38
2.30517e-36
1.42449e-34
2.82247e-33
2.2217e-32
8.41513e-32
1.72945e-31
2.26418e-31
1.81466e-31
1.11807e-31
2.6757e-31
1.29019e-29
6.33922e-28
2.35103e-26
7.988e-25
3.06495e-23
3.42212e-21
2.21204e-19
2.8293e-18
3.21832e-43
9.81332e-45
1.24106e-42
6.2817e-41
1.32219e-39
1.13031e-37
6.95431e-36
1.36949e-34
1.06823e-33
3.99902e-33
8.1039e-33
1.04397e-32
8.25257e-33
5.11555e-33
2.10388e-32
1.19433e-30
6.31734e-29
2.73871e-27
1.10472e-25
3.75926e-24
3.22933e-22
2.38099e-20
3.51517e-19
1.83192e-44
5.75747e-46
5.9433e-44
3.05156e-42
6.42494e-41
5.49816e-39
3.36634e-37
6.58198e-36
5.07858e-35
1.87399e-34
3.73086e-34
4.70989e-34
3.65069e-34
2.30841e-34
1.67665e-33
1.16197e-31
6.41986e-30
3.29395e-28
1.57429e-26
5.60592e-25
3.94999e-23
2.72369e-21
4.17262e-20
1.00834e-45
3.24116e-47
2.84901e-45
1.47432e-43
3.1041e-42
2.65707e-40
1.61774e-38
3.13724e-37
2.39104e-36
8.67817e-36
1.69257e-35
2.08761e-35
1.57893e-35
1.01783e-35
1.29325e-34
1.04896e-32
6.01816e-31
3.53447e-29
1.88758e-27
7.5147e-26
4.79024e-24
2.93236e-22
4.49738e-21
5.37171e-47
1.74161e-48
1.36954e-46
7.09872e-45
1.49387e-43
1.27735e-41
7.72744e-40
1.48474e-38
1.11635e-37
3.97927e-37
7.58875e-37
9.12745e-37
6.71235e-37
4.36671e-37
8.01915e-36
6.98527e-34
4.26248e-32
2.75095e-30
1.58128e-28
7.21773e-27
4.37723e-25
2.47691e-23
4.04311e-22
2.77649e-48
8.87275e-50
6.60887e-48
3.41173e-46
7.17276e-45
6.11635e-43
3.67341e-41
6.98557e-40
5.17667e-39
1.81041e-38
3.37188e-38
3.95066e-38
2.81839e-38
1.82203e-38
3.68782e-37
3.15764e-35
2.04546e-33
1.39484e-31
8.52815e-30
4.47107e-28
2.62887e-26
1.49901e-24
2.83422e-23
1.39839e-49
4.21351e-51
3.20212e-49
1.63854e-47
3.4398e-46
2.91978e-44
1.73965e-42
3.27099e-41
2.38767e-40
8.18983e-40
1.48944e-39
1.69353e-39
1.15877e-39
7.25298e-40
1.45372e-38
1.1678e-36
7.52123e-35
5.12047e-33
3.21282e-31
1.83048e-29
1.06753e-27
6.64751e-26
1.47916e-24
6.88314e-51
1.49576e-52
1.55958e-50
7.8849e-49
1.65248e-47
1.39411e-45
8.2363e-44
1.52994e-42
1.07192e-41
3.38326e-41
5.28221e-41
5.07976e-41
3.70028e-41
2.47453e-41
5.71586e-40
4.44584e-38
2.70046e-36
1.738e-34
1.04274e-32
5.77177e-31
3.36147e-29
2.25001e-27
5.45934e-26
1.77421e-52
1.08335e-52
3.80131e-52
1.89973e-50
3.97538e-49
3.33268e-47
1.95183e-45
3.58149e-44
4.82433e-43
3.4552e-42
1.21114e-41
2.55557e-41
2.43401e-41
2.43401e-41
2.43401e-41
9.02786e-40
5.19464e-38
3.14577e-36
1.76473e-34
9.05757e-33
5.10959e-31
3.40038e-29
8.28293e-28
0.999956
0.999956
0.999956
0.999955
0.999952
0.999956
0.999953
0.99994
0.994841
0.999089
0.995513
0.98661
0.800949
0.855318
0.657181
0.559157
0.717509
0.668446
0.173531
0.0275841
0.327524
0.296598
0.0543851
0.0157833
0.00121077
0.027635
0.247864
0.353171
0.000505437
0.00100372
0.00235391
0.0330916
0.00045699
0.000512925
0.000882505
0.00231627
0.000439367
0.000463474
0.000749406
0.0015749
0.0003672
0.00044686
0.000724888
0.00136823
0.000225014
0.000359344
0.00081639
0.00186508
0.000134009
0.000306069
0.000759232
0.00227227
7.83541e-05
0.000214271
0.000625922
0.00488324
5.41291e-05
0.000159238
0.000793653
0.0042396
3.35591e-05
0.000134405
0.000773957
0.00310131
6.61603e-06
3.08574e-05
0.000351162
0.000561789
3.22773e-07
2.84719e-06
8.75442e-06
2.13167e-05
4.65637e-08
4.33269e-07
1.12039e-06
2.774e-06
6.34283e-09
5.49233e-08
1.17613e-07
3.11596e-07
7.37228e-10
5.85038e-09
1.05429e-08
2.92357e-08
6.47867e-11
5.23126e-10
8.13099e-10
2.36145e-09
8.3606e-12
3.85249e-11
8.55948e-11
1.92226e-10
4.54626e-12
9.14675e-12
2.03289e-11
4.65762e-11
1.88062e-12
5.07377e-12
1.48221e-11
3.66267e-11
6.51349e-13
1.90442e-12
7.88173e-12
2.56765e-11
2.41605e-13
5.39791e-13
2.76546e-12
1.29216e-11
9.64855e-14
1.57713e-13
6.30546e-13
4.05652e-12
3.54359e-14
5.55036e-14
1.27604e-13
8.48865e-13
1.04697e-14
1.9721e-14
4.41283e-14
2.75474e-13
2.32876e-15
5.68995e-15
1.8231e-14
1.27808e-13
3.84099e-16
1.10922e-15
5.76045e-15
4.20319e-14
5.18735e-17
1.30494e-16
9.28127e-16
6.14369e-15
6.81287e-18
1.2256e-17
5.84079e-17
3.40156e-16
9.00411e-19
1.51796e-18
3.84146e-18
2.20572e-17
1.13094e-19
2.38157e-19
8.33831e-19
5.09026e-18
1.32128e-20
4.22584e-20
2.6031e-19
1.81531e-18
1.38973e-21
7.61129e-21
7.46665e-20
6.28394e-19
1.21287e-22
1.17223e-21
1.54935e-20
1.61116e-19
7.7042e-24
1.28951e-22
2.06521e-21
2.53933e-20
3.19797e-25
8.4947e-24
1.60873e-22
2.18581e-21
5.18329e-27
1.89582e-25
4.24686e-24
6.19363e-23
0.999948
0.99991
0.999354
0.799888
0.240389
0.0660471
0.660236
0.861126
0.186236
0.00299169
0.00100457
0.000101996
6.5995e-05
6.44464e-05
6.5995e-05
8.0913e-05
0.000218988
0.128271
0.868385
0.999911
0.999373
0.832224
0.0915009
0.0164263
0.0263924
0.581906
0.811128
0.627185
0.0811273
0.000904595
0.000132147
6.45036e-05
6.44464e-05
6.44652e-05
8.84896e-05
0.000145043
0.0839219
0.78183
0.973368
0.767078
0.0584742
0.00588263
0.0112109
0.368502
0.775191
0.787861
0.740051
0.11975
0.0013735
0.000189503
7.29535e-05
6.48034e-05
8.12514e-05
0.000139289
0.000190762
0.0630996
0.754938
0.403391
0.0467702
0.00205488
0.000729209
0.118148
0.363425
0.411618
0.423396
0.416003
0.0803489
0.00278482
0.000189448
8.39992e-05
8.27569e-05
0.000248221
0.00036024
0.000297219
0.0486912
0.732159
0.00695945
0.0020972
0.00072849
0.000639604
0.000518626
0.000936696
0.0099272
0.0180746
0.0198311
0.0156002
0.00119401
0.000129246
0.000114029
0.000509753
0.00139836
0.00147531
0.000699976
0.0423075
0.712862
0.0141281
0.020364
0.0159497
0.000493958
0.000331538
0.000473821
0.00433435
0.00540046
0.00236112
0.000764243
0.000203129
0.00015814
0.000201547
0.00332317
0.0562024
0.0380086
0.00249613
0.0842605
0.710672
0.355554
0.357937
0.176399
0.00033207
0.000275516
0.000312364
0.00111645
0.00131648
0.00118973
0.001173
0.000470641
0.000170015
0.0205764
0.231504
0.611888
0.521305
0.0478681
0.260544
0.72285
0.220533
0.357937
0.333931
0.0173369
0.000268474
0.000275516
0.000311016
0.000418554
0.000707087
0.00133722
0.0011929
0.0927053
0.465487
0.775045
0.84483
0.82377
0.159517
0.46691
0.725102
0.0166303
0.23587
0.339468
0.22594
0.000268474
0.000265262
0.000275535
0.000325552
0.000511848
0.00137737
0.046008
0.454992
0.79246
0.844985
0.845169
0.815358
0.459472
0.574252
0.725101
0.00397796
0.0584624
0.272496
0.318231
0.0650655
0.000275535
0.00599866
0.0205906
0.0341313
0.155087
0.395155
0.472275
0.315086
0.600024
0.846364
0.589174
0.536378
0.327255
0.718369
0.00275816
0.00624399
0.0919245
0.404264
0.518034
0.462736
0.501595
0.528481
0.547314
0.543078
0.514399
0.131288
0.0822006
0.417562
0.859272
0.60888
0.332911
0.326895
0.576746
0.00464653
0.0205711
0.385868
0.653454
0.654926
0.656442
0.656442
0.656442
0.654908
0.293986
0.0117341
0.0330227
0.0699556
0.501398
0.87652
0.891069
0.498761
0.438817
0.862428
0.00415238
0.00677426
0.247704
0.597954
0.653534
0.654852
0.656442
0.450226
0.0275461
0.00471103
0.00692665
0.0462105
0.106978
0.280709
0.751948
0.914083
0.91853
0.915642
0.93271
0.00979092
0.00355627
1.67198e-05
0.00494035
0.2858
0.437184
0.171257
0.00491573
0.00244926
0.0037315
0.0289654
0.0309045
0.00799257
0.00129443
0.113913
0.750623
0.92755
0.932464
0.932866
0.00611991
6.80087e-06
2.84449e-06
2.04782e-05
3.43801e-05
4.67445e-06
0.0126389
0.00820564
0.00154061
0.000228705
8.57709e-07
3.87823e-06
1.99611e-05
0.000107829
0.000666176
0.0677565
0.61165
0.919822
0.932464
0.00144382
2.76203e-06
2.64561e-06
2.71904e-06
2.64945e-06
2.91869e-06
2.8696e-06
1.90388e-06
2.52222e-06
1.4288e-07
2.76462e-07
8.65534e-07
3.90619e-06
2.30388e-05
0.000101893
0.000626522
0.00374289
0.406233
0.830549
0.000150053
3.20646e-05
9.54656e-06
3.40414e-06
2.33919e-05
4.93766e-05
4.77475e-05
1.3905e-06
1.46162e-07
9.62047e-08
3.36424e-07
5.85805e-07
1.94977e-06
6.95256e-06
3.07196e-05
0.000101319
0.00057108
0.0379424
0.688825
3.04109e-05
3.47859e-05
9.0968e-06
6.90952e-07
5.1392e-07
3.54498e-06
1.67759e-05
1.01543e-05
2.53434e-06
6.73098e-08
1.80545e-06
1.45959e-05
2.70868e-05
2.88135e-05
3.15785e-05
5.09421e-05
0.000408844
0.023911
0.176838
4.07755e-06
6.10292e-06
3.42098e-06
4.52205e-07
2.32314e-08
4.76304e-09
5.29282e-09
1.28625e-07
1.9847e-07
3.87096e-08
2.14957e-08
2.0508e-05
6.84519e-05
6.89258e-05
6.53835e-05
4.77088e-05
0.000788262
0.00756163
0.032786
4.32337e-07
3.78534e-07
2.33593e-07
9.68486e-08
1.06202e-08
4.73857e-10
2.91193e-09
7.15596e-09
1.62799e-08
1.89192e-08
2.00831e-08
2.18848e-08
4.85051e-05
6.9206e-05
6.8931e-05
4.25664e-05
0.0016544
0.00122597
0.0259506
3.8165e-08
3.89757e-08
2.5234e-08
9.76279e-09
1.10962e-09
2.04242e-10
5.71355e-09
8.2595e-08
1.44637e-07
9.42038e-08
2.33227e-08
2.84375e-08
3.31408e-08
5.04819e-05
6.9206e-05
3.81717e-05
4.71555e-06
0.000854153
0.0460006
2.89316e-09
3.52233e-09
2.51404e-09
9.44332e-10
1.92291e-10
1.93977e-10
1.70643e-07
3.20105e-07
3.19614e-07
2.66848e-07
5.47083e-08
3.20435e-08
3.68616e-08
4.73022e-06
6.44857e-05
1.54668e-05
4.10557e-06
0.000240072
0.0958062
2.48101e-10
3.17843e-10
2.85844e-10
2.07629e-10
1.82914e-10
1.89456e-10
5.63335e-08
2.19055e-07
3.24447e-07
3.83341e-07
3.91713e-07
7.3724e-08
3.93264e-08
1.53255e-06
1.81231e-05
5.41563e-06
3.75022e-06
1.52697e-05
0.0983919
1.08666e-10
1.69739e-10
1.85096e-10
1.82914e-10
1.82914e-10
9.23862e-10
1.94217e-10
2.11336e-10
2.4854e-07
1.60347e-06
1.60603e-06
5.76573e-07
2.37624e-07
5.56909e-06
3.24921e-06
3.23151e-06
3.25165e-06
4.42102e-06
0.0984563
9.96239e-11
1.68047e-10
1.89715e-10
1.94038e-10
1.88384e-10
1.87984e-10
1.87984e-10
1.94193e-10
1.10149e-06
1.60603e-06
1.60603e-06
1.04489e-06
2.22942e-07
4.39769e-06
4.35968e-06
3.09682e-06
3.23322e-06
5.27552e-06
0.0980057
9.7428e-11
2.01187e-10
2.45049e-10
2.82594e-10
2.65763e-10
1.91071e-10
2.22965e-10
2.56105e-10
2.56764e-09
1.30458e-06
1.60603e-06
1.08261e-06
2.43357e-07
3.56958e-06
2.16691e-06
2.61514e-06
3.10711e-06
9.68204e-06
0.097481
8.27401e-11
2.27238e-10
3.96611e-10
4.16814e-10
2.82459e-10
1.90036e-09
1.12779e-08
7.36395e-09
6.13347e-09
6.81656e-08
1.56643e-06
1.314e-06
2.74948e-07
1.47966e-06
5.83046e-07
1.13238e-05
1.50274e-05
3.09877e-05
0.0966115
5.65218e-11
2.56793e-10
4.03025e-10
3.83154e-10
2.91122e-10
1.1092e-08
2.81618e-08
3.20006e-08
8.64531e-09
9.71957e-09
1.0072e-06
1.39188e-06
7.90201e-07
1.0668e-06
3.0598e-07
1.04819e-05
0.00105094
0.000734386
0.0741994
3.45458e-11
1.98405e-10
4.04521e-10
4.38919e-10
6.89523e-10
6.89363e-10
7.04645e-10
2.93962e-08
3.36192e-08
1.01863e-08
5.77055e-07
1.39188e-06
1.1734e-06
3.0598e-07
3.05472e-07
7.63013e-06
0.00187783
0.00160673
0.00156637
2.39265e-11
1.50836e-10
3.57512e-10
3.72692e-10
1.35488e-09
1.31902e-09
8.06838e-10
2.70882e-08
5.33359e-08
2.57106e-08
9.15807e-08
8.83402e-07
4.70577e-07
3.05442e-07
3.05695e-07
0.00018561
0.00189244
0.000917872
0.0010441
1.73544e-11
1.13562e-10
2.78028e-10
3.42789e-10
5.43865e-10
1.53948e-10
3.63965e-08
4.78797e-07
1.16163e-07
2.96535e-08
3.01795e-08
3.05157e-08
3.04322e-08
6.48647e-06
3.05407e-07
0.00069612
0.00187783
0.000124126
0.0284128
9.2247e-12
6.37141e-11
1.66219e-10
1.90828e-10
1.5358e-09
1.12138e-10
2.83227e-07
1.35709e-06
5.64636e-07
3.27773e-08
3.05375e-08
3.2963e-08
7.7283e-07
1.11352e-05
3.59572e-07
0.000579925
0.0010862
2.23676e-07
0.0816059
2.38294e-12
1.96829e-11
4.12333e-11
1.8189e-10
1.62531e-09
7.58455e-11
4.0657e-07
1.35709e-06
1.32036e-06
6.51479e-08
5.53301e-08
3.53875e-08
3.90387e-08
1.21546e-05
1.66743e-06
6.6659e-08
2.59894e-08
1.01179e-07
0.0818929
2.32347e-13
3.11139e-12
7.43166e-12
6.57913e-11
9.39361e-10
6.0502e-11
6.1634e-08
1.3454e-06
1.36466e-06
2.47169e-07
1.86265e-06
2.89621e-06
4.14875e-05
4.29072e-05
8.33406e-06
1.69126e-08
1.19018e-08
2.59895e-08
0.0814051
1.28622e-14
4.52076e-13
3.4442e-12
3.07658e-11
2.55474e-10
5.89149e-11
6.05053e-11
1.60046e-07
1.15964e-06
1.34936e-07
1.59243e-05
3.45142e-05
4.36134e-05
4.30762e-05
7.60705e-06
7.20588e-10
2.82498e-09
1.19018e-08
0.0850549
1.25783e-15
8.55044e-14
2.33421e-12
1.49597e-11
2.83218e-11
8.93692e-12
4.54236e-09
1.13939e-10
1.10395e-10
1.13895e-10
4.85647e-06
2.34976e-05
2.26833e-05
7.32119e-12
8.41795e-11
3.75374e-11
7.20568e-10
2.82499e-09
0.0890635
2.63356e-16
1.72224e-14
1.12136e-12
5.34221e-12
5.00435e-12
1.26715e-12
1.37906e-10
3.75136e-10
1.08503e-10
2.93313e-10
1.25653e-13
4.49778e-15
1.88794e-16
2.18677e-17
1.2496e-17
6.19581e-17
3.52967e-12
0.000324371
0.0890996
6.47157e-17
3.07786e-15
2.17525e-13
5.1938e-13
1.3092e-12
7.42983e-13
2.86579e-11
1.0972e-10
1.06099e-10
9.5282e-10
7.28585e-11
4.29893e-14
3.7956e-16
9.69287e-18
6.06387e-19
2.45963e-17
1.34607e-13
0.000736504
0.0890996
1.1677e-17
3.19964e-16
1.03797e-14
1.39388e-14
2.91139e-13
1.68529e-13
2.45071e-11
5.1077e-11
4.95369e-11
5.5831e-11
1.02581e-11
1.3947e-13
2.39549e-19
1.59844e-19
1.16903e-22
6.06929e-19
7.85343e-07
0.000602225
0.089076
1.17222e-18
1.47446e-17
1.14067e-16
4.36048e-16
2.26588e-14
7.66452e-15
3.10432e-12
1.74661e-12
5.10738e-13
5.01279e-20
3.04715e-22
7.44291e-23
3.2518e-24
5.62435e-26
2.19072e-25
6.01108e-18
2.08993e-12
0.00121883
0.0887999
5.75721e-20
3.68369e-19
2.07138e-18
4.38056e-17
3.04013e-16
3.65304e-17
2.70852e-14
2.84006e-15
1.87888e-21
4.29312e-24
2.49768e-25
2.53215e-29
4.15886e-28
2.60483e-30
4.14409e-35
2.67308e-11
1.37591e-12
0.00192605
0.031625
8.92265e-22
4.00699e-21
3.22677e-20
1.56847e-18
1.35853e-18
1.55272e-18
6.5282e-18
7.33381e-19
1.83869e-21
5.63791e-32
3.05496e-34
3.21251e-30
1.13275e-37
1.45788e-40
5.16727e-35
3.82686e-10
1.46859e-12
1.86693e-30
0
)
;

boundaryField
{
    leftWall
    {
        type            zeroGradient;
    }
    rightWall
    {
        type            zeroGradient;
    }
    lowerWall
    {
        type            zeroGradient;
    }
    atmosphere
    {
        type            inletOutlet;
        inletValue      uniform 0;
        value           nonuniform List<scalar> 
46
(
1.77421e-52
1.08335e-52
3.80131e-52
1.89973e-50
3.97538e-49
3.33268e-47
1.95183e-45
3.58149e-44
4.82433e-43
3.4552e-42
1.21114e-41
2.55557e-41
2.43401e-41
2.43401e-41
2.43401e-41
9.02786e-40
5.19464e-38
3.14577e-36
1.76473e-34
9.05757e-33
5.10959e-31
3.40038e-29
8.28293e-28
5.18329e-27
1.89582e-25
4.24686e-24
6.19363e-23
8.92265e-22
4.00699e-21
0
0
0
0
0
0
0
0
0
0
0
0
0
0
0
0
0
)
;
    }
    defaultFaces
    {
        type            empty;
    }
}


// ************************************************************************* //
