/*--------------------------------*- C++ -*----------------------------------*\
  =========                 |
  \\      /  F ield         | OpenFOAM: The Open Source CFD Toolbox
   \\    /   O peration     | Website:  https://openfoam.org
    \\  /    A nd           | Version:  13
     \\/     M anipulation  |
\*---------------------------------------------------------------------------*/
FoamFile
{
    format      ascii;
    class       volScalarField;
    location    "0.65";
    object      p;
}
// * * * * * * * * * * * * * * * * * * * * * * * * * * * * * * * * * * * * * //

dimensions      [1 -1 -2 0 0 0 0];

internalField   nonuniform List<scalar> 
2268
(
506.596
505.723
507.244
511.866
521.367
536.551
556.534
577.749
598.19
618.698
639.933
661.864
684.093
706.174
727.748
748.13
766.421
782.397
794.529
796.756
797.821
821.025
855.607
447.371
446.034
447.382
451.885
461.207
476.364
496.692
518.318
538.983
559.585
580.816
602.779
625.078
647.235
668.81
689.29
708.005
724.761
739.385
740.236
733.132
750.215
791.357
387.22
385.576
386.921
391.021
399.777
414.752
435.779
458.31
479.474
500.275
521.677
543.744
566.093
588.282
609.737
630.014
648.798
665.553
681.249
683.88
675.011
686.22
728.925
326.714
324.751
325.905
329.294
337.085
351.772
373.935
397.869
419.821
440.886
462.461
484.687
507.158
529.507
550.995
571.139
589.848
606.849
621.725
628.19
624.669
634.522
672.949
266.4
263.954
264.645
267.1
273.537
288.355
311.988
337.316
360.059
381.481
403.268
425.662
448.274
470.933
492.593
512.703
531.448
548.707
563.824
573.823
579.243
589.767
622.609
206.236
203.61
203.138
204.428
211.02
226.382
250.756
276.688
299.846
321.893
344.135
366.701
389.428
412.58
434.495
454.568
473.432
491.03
506.946
520.065
531.188
543.68
573.147
146.211
145.111
142.785
143.996
150.421
166.194
190.247
215.6
238.633
261.601
284.762
307.789
330.601
354.58
376.688
396.686
415.675
433.533
450.151
465.386
479.7
495.146
522.192
84.396
81.8553
81.6358
83.9064
91.4051
107.246
129.908
153.897
176.835
200.884
225.234
248.854
272.285
296.288
319.014
339.003
358.16
376.211
393.364
410.192
426.915
445.717
475.402
820.397
752.978
853.003
1000.42
1107.94
1162.61
1251.11
1326.89
1167.34
733.943
421.269
296.673
270.664
271.964
329.889
588.609
1049.91
1299.8
1197.21
755.121
648.139
759.161
923.527
1026.93
1085.97
1200.24
1292.03
1038.39
496.216
235.574
193.796
196.616
211.251
258.694
459.768
891.938
1200.69
1142.39
679.444
557.077
671.52
840.16
936.05
990.831
1155.95
1215.21
631.278
238.864
162.612
154.981
154.807
157.132
167.805
249.964
610.96
1065.01
1081.52
631.242
491.679
593.011
748.593
831.478
879.367
1094.3
1045.92
302.658
172.082
154.808
152.186
151.307
150.832
152.529
179.333
332.153
850.016
1007.09
606.791
481.38
526.907
651.538
711.515
744.013
979.719
779.879
223.723
158.497
152.973
151.871
150.91
150.194
150.868
160.94
221.917
563.468
912.465
587.574
475.855
472.568
549.673
570.06
578.589
816.444
561.102
196.231
154.308
152.293
151.734
150.65
149.761
149.964
154.616
184.19
340.439
800.646
558.765
459.621
425.036
448.505
414.174
389.751
641.168
540.537
187.482
153.437
152.021
151.668
150.388
149.343
149.219
151.589
164.696
223.998
669.625
514.497
434.307
380.164
350.641
277.997
243.548
470.872
538.961
185.199
153.986
151.983
151.594
150.068
148.855
148.555
149.967
155.288
171.276
523.059
30.2597
26.8491
26.7059
31.4326
37.0811
45.0041
55.3828
68.0025
86.071
107.686
131.587
156.508
181.072
205.871
229.812
249.102
268.454
286.568
304.265
322.373
342.583
366.714
401.036
7.36646
7.04216
7.00899
8.44544
10.4024
12.0316
12.8533
14.3745
18.808
26.4884
37.3839
52.4204
70.3854
89.8445
110.255
129.569
147.825
164.301
181.757
201.067
223.242
251.616
290.599
6.91113
6.76492
6.65475
6.67217
6.631
6.57287
6.54529
6.56311
6.59327
6.61829
7.03772
9.90534
14.4904
21.3441
30.2288
41.2093
51.8864
60.8756
70.826
82.7365
98.3607
128.334
182.522
6.59813
6.48653
6.39404
6.42974
6.44598
6.39165
6.35572
6.38008
6.43911
6.49551
6.54119
6.58559
6.69233
6.80391
6.85542
6.96193
8.52647
10.3637
12.7567
16.1253
17.819
24.0527
82.2944
6.38259
6.33233
6.29407
6.31721
6.31051
6.26044
6.23204
6.23865
6.279
6.33668
6.39141
6.46256
6.54415
6.62748
6.72615
6.84565
6.93075
7.06099
7.15639
6.96374
5.87601
5.52403
8.92723
6.19048
6.18552
6.16231
6.15077
6.14565
6.13219
6.13079
6.15319
6.18169
6.21765
6.26473
6.31904
6.3909
6.46633
6.53673
6.61935
6.71701
6.8402
6.95273
7.01501
6.98538
7.26244
9.40808
6.00989
6.00959
5.99661
5.98884
5.98621
5.98507
5.99097
6.00613
6.0291
6.06379
6.10821
6.15737
6.2225
6.2962
6.37329
6.44444
6.52308
6.60696
6.67453
6.705
6.79407
7.03512
6.86944
5.83262
5.83054
5.82565
5.82518
5.82592
5.82799
5.83713
5.85476
5.88048
5.91259
5.94871
5.99065
6.04171
6.09946
6.1618
6.22703
6.29664
6.37064
6.4456
6.50494
6.56431
6.7004
6.97945
5.65615
5.6548
5.65335
5.65453
5.65759
5.66327
5.67423
5.69105
5.71332
5.74085
5.7734
5.81104
5.85442
5.90329
5.95762
6.01445
6.07145
6.13057
6.19536
6.26523
6.34998
6.50569
6.80284
5.47915
5.47866
5.47904
5.48094
5.48527
5.49231
5.50317
5.51818
5.53768
5.56183
5.59026
5.62225
5.65807
5.69784
5.74134
5.78686
5.83276
5.88019
5.93315
5.99844
6.08677
6.23422
6.53482
5.30171
5.30164
5.3031
5.30575
5.31059
5.31738
5.32727
5.34048
5.35731
5.37765
5.40105
5.42703
5.45544
5.48602
5.51831
5.55118
5.58394
5.61757
5.65531
5.70288
5.76235
5.84442
6.00624
5.12372
5.12399
5.12578
5.12856
5.13317
5.13932
5.14779
5.15869
5.17216
5.18806
5.20616
5.22605
5.24723
5.26911
5.29098
5.31174
5.33062
5.34763
5.36467
5.38409
5.39465
5.37859
5.33559
4.94502
4.94551
4.9472
4.94967
4.95357
4.95867
4.96536
4.97365
4.98362
4.99513
5.0079
5.02142
5.03507
5.04815
5.05973
5.06865
5.07365
5.07352
5.06782
5.05597
5.02353
4.93548
4.75752
4.76567
4.7662
4.76759
4.76954
4.77248
4.77621
4.78092
4.78654
4.79304
4.80022
4.80769
4.81491
4.8212
4.82571
4.82732
4.82461
4.81581
4.79879
4.77081
4.72752
4.65741
4.52481
4.25282
4.58583
4.58626
4.58722
4.58851
4.59034
4.59257
4.59523
4.59818
4.60128
4.60424
4.60664
4.6079
4.60725
4.60371
4.596
4.58241
4.56068
4.52789
4.47985
4.40896
4.30261
4.13051
3.79978
4.40569
4.40595
4.4064
4.40693
4.40761
4.4083
4.40892
4.40928
4.40914
4.40816
4.40587
4.40163
4.3946
4.38373
4.36758
4.34425
4.31115
4.2648
4.20025
4.10875
3.97517
3.77317
3.42477
4.22546
4.22551
4.22545
4.22518
4.22472
4.22391
4.22258
4.22051
4.21739
4.21282
4.20629
4.19713
4.18447
4.16717
4.14372
4.11213
4.06967
4.01267
3.93598
3.8314
3.68388
3.47006
3.14138
4.04543
4.04525
4.04468
4.04364
4.04208
4.03985
4.03674
4.03246
4.02667
4.01893
4.0087
3.9953
3.97783
3.95516
3.92577
3.88765
3.83813
3.77365
3.6894
3.57921
3.4293
3.22333
2.93159
3.86585
3.86545
3.8644
3.86263
3.86006
3.85654
3.85183
3.84561
3.83752
3.82708
3.81375
3.79683
3.77546
3.74855
3.71463
3.67182
3.61765
3.54872
3.4604
3.35313
3.20783
3.01846
2.77204
3.68697
3.68637
3.6849
3.68245
3.67899
3.67433
3.66823
3.66037
3.65036
3.63772
3.62192
3.60224
3.57789
3.54787
3.51081
3.46508
3.40871
3.33856
3.25174
3.14497
3.01073
2.8427
2.6355
3.50904
3.50825
3.50641
3.50337
3.49913
3.4935
3.48624
3.47704
3.46549
3.45116
3.43352
3.41182
3.38537
3.35339
3.3145
3.26731
3.2102
3.14084
3.05691
2.95557
2.83294
2.68493
2.50907
3.33227
3.33128
3.32915
3.32561
3.32072
3.3143
3.3061
3.29584
3.28313
3.26754
3.24877
3.22571
3.198
3.16485
3.12519
3.07783
3.02145
2.95435
2.87471
2.78056
2.66966
2.53973
2.38999
3.15688
3.15554
3.15334
3.14932
3.14396
3.1369
3.128
3.11696
3.10345
3.08708
3.06739
3.0437
3.01547
2.98202
2.94252
2.89602
2.84145
2.77762
2.70319
2.61685
2.51735
2.40356
2.27576
2.98292
2.98145
2.97894
2.97469
2.96892
2.96141
2.95201
2.94046
2.92644
2.90962
2.88954
2.86569
2.83753
2.80449
2.76589
2.72102
2.66904
2.60911
2.54033
2.46187
2.37309
2.27358
2.16402
2.81046
2.80888
2.8062
2.80176
2.79573
2.78793
2.77822
2.76637
2.75212
2.73516
2.71509
2.69148
2.66388
2.63178
2.59465
2.55194
2.50304
2.44737
2.38437
2.31355
2.23465
2.14767
2.05339
2.63955
2.6379
2.63515
2.6306
2.62443
2.61648
2.60664
2.59471
2.58047
2.56363
2.54388
2.52085
2.49416
2.4634
2.42814
2.38796
2.34244
2.2912
2.23389
2.17028
2.10037
2.02435
1.94302
2.47023
2.46855
2.46578
2.46119
2.45501
2.44706
2.43726
2.42543
2.4114
2.39492
2.37575
2.35357
2.32807
2.29892
2.26579
2.22837
2.18638
2.13956
2.08774
2.03086
1.96905
1.90263
1.83236
2.30251
2.3008
2.29808
2.29353
2.28743
2.2796
2.26999
2.25844
2.24481
2.22889
2.21049
2.18937
2.16527
2.13792
2.10709
2.07255
2.0341
1.99161
1.94501
1.89435
1.83984
1.78183
1.72104
2.13635
2.13463
2.132
2.12756
2.12164
2.11404
2.10475
2.09362
2.08055
2.06536
2.04791
2.028
2.00543
1.98002
1.95158
1.91994
1.885
1.84668
1.80499
1.76005
1.71209
1.66148
1.60885
1.9717
1.96999
1.96748
1.96321
1.95755
1.95027
1.94141
1.93083
1.91844
1.90413
1.88775
1.86917
1.84825
1.82484
1.79882
1.77007
1.73854
1.70419
1.6671
1.62739
1.58531
1.54122
1.49566
1.80848
1.80683
1.80445
1.80039
1.79504
1.78817
1.77983
1.7699
1.75831
1.74497
1.72977
1.71263
1.69342
1.67205
1.64844
1.62253
1.59427
1.56369
1.53087
1.49595
1.45918
1.42085
1.38145
1.64662
1.64506
1.64281
1.639
1.63403
1.62762
1.61988
1.61067
1.59996
1.58768
1.57374
1.55809
1.54063
1.52132
1.5001
1.47693
1.45182
1.42479
1.39595
1.36543
1.33344
1.30026
1.26627
1.486
1.48456
1.48246
1.47894
1.47437
1.46848
1.46138
1.45297
1.4432
1.43203
1.41942
1.40529
1.38962
1.37235
1.35346
1.33295
1.31084
1.28716
1.26202
1.23554
1.20791
1.17936
1.1502
1.32654
1.32523
1.32329
1.32008
1.31593
1.31059
1.3042
1.29661
1.28784
1.27783
1.26656
1.25399
1.24009
1.22484
1.20824
1.19029
1.17103
1.1505
1.1288
1.10604
1.08239
1.05803
1.0332
1.16809
1.16695
1.16518
1.16229
1.15859
1.15383
1.14816
1.14143
1.13368
1.12486
1.11496
1.10394
1.0918
1.07853
1.06414
1.04865
1.0321
1.01453
0.996021
0.97669
0.956668
0.936108
0.915193
1.01053
1.0096
1.00799
1.00545
1.00221
0.998053
0.99312
0.987273
0.98056
0.97294
0.964399
0.954927
0.944521
0.933187
0.920935
0.907791
0.89379
0.878987
0.863454
0.847282
0.830584
0.813475
0.796096
0.853742
0.853042
0.851607
0.849425
0.846665
0.843126
0.838944
0.833989
0.828322
0.821899
0.814716
0.80677
0.798062
0.788601
0.778405
0.767499
0.755918
0.743712
0.730944
0.717687
0.704033
0.690065
0.675893
0.697596
0.697136
0.695896
0.69409
0.691817
0.688905
0.685484
0.681428
0.676805
0.671573
0.665734
0.659286
0.652236
0.644593
0.636376
0.627609
0.618325
0.608565
0.59838
0.58783
0.576985
0.565907
0.554675
0.54196
0.541743
0.540703
0.539284
0.537511
0.535233
0.532578
0.529422
0.525843
0.521793
0.517281
0.512307
0.506876
0.501
0.494694
0.487979
0.480885
0.473446
0.465701
0.457695
0.449474
0.441087
0.432582
0.386725
0.386723
0.385903
0.384884
0.383619
0.381984
0.380095
0.377842
0.375298
0.372417
0.369215
0.36569
0.361846
0.357692
0.353241
0.348511
0.343524
0.338304
0.332881
0.327281
0.321538
0.315684
0.309748
0.231844
0.231975
0.231403
0.230796
0.230042
0.229056
0.227929
0.226578
0.225062
0.223339
0.221429
0.21933
0.217044
0.214577
0.211937
0.209135
0.206184
0.2031
0.199901
0.196602
0.193226
0.189785
0.186295
0.0771452
0.0773431
0.0771071
0.0769078
0.0766578
0.0763218
0.0759513
0.0754982
0.0749963
0.0744228
0.0737892
0.0730946
0.0723401
0.0715272
0.0706581
0.0697374
0.0687699
0.0677605
0.0667161
0.0656398
0.0645391
0.063417
0.0622763
429.901
445.66
458.63
463.954
322.404
340.249
353.859
362.119
225.084
243.905
255.187
260.05
153.045
180.725
174.107
158.438
48.8225
85.2013
109.292
113.92
26.6944
50.7781
86.6401
94.6542
7.02482
9.19059
22.3201
50.3272
7.30829
7.52264
8.02126
10.1222
7.11848
7.36132
7.61206
7.5905
6.93617
7.24716
7.48579
7.3317
6.24163
6.41332
6.52947
6.35555
5.24251
5.13962
4.98153
4.66253
4.50612
4.3168
4.10706
3.70423
3.89066
3.62506
3.28462
2.64725
3.35326
3.0076
2.53931
1.82142
2.94594
2.55192
2.00372
1.28489
2.70794
2.34677
1.86993
1.31563
2.59534
2.32759
2.00296
1.64296
2.52626
2.34416
2.13905
1.91535
2.44506
2.3112
2.16822
2.01771
2.35428
2.24815
2.13805
2.02513
2.26315
2.17744
2.08958
2.00033
2.17089
2.10081
2.02943
1.95728
2.07615
2.01794
1.95896
1.8996
1.97906
1.93015
1.8808
1.83134
1.87975
1.83835
1.79673
1.75515
1.77827
1.74304
1.70772
1.67255
1.67467
1.64458
1.61447
1.58455
1.56901
1.54322
1.51745
1.49189
1.46137
1.43922
1.41711
1.39519
1.35193
1.33289
1.31389
1.29504
1.24091
1.22457
1.20825
1.19205
1.12849
1.11452
1.10056
1.08669
1.01476
1.0029
0.991057
0.979267
0.899695
0.889735
0.879789
0.869884
0.783238
0.774983
0.766744
0.758533
0.665418
0.658699
0.651991
0.645298
0.546374
0.54105
0.535729
0.530412
0.426295
0.422261
0.418222
0.414178
0.305359
0.302538
0.299705
0.296861
0.183712
0.182046
0.18037
0.178681
0.0614304
0.0608836
0.0603307
0.05977
458.71
397.94
307.988
203.43
140.556
149.503
250.471
400.139
172.497
153.58
152.035
151.341
149.526
148.032
147.647
148.542
150.579
151.309
329.368
363.479
310.361
197.572
104.278
75.3824
74.229
82.713
140.813
130.365
146.457
150.227
150.529
149.038
147.455
147.124
147.926
149.139
149.798
218.411
251.493
191.682
132.374
102.344
64.6542
-3.42335
-55.5336
-28.8825
75.2956
132.766
147.224
149.758
149
147.77
147.36
148.102
149.492
152.082
181.815
140.45
126.074
122.959
115.048
114.678
129.192
100.83
70.6469
83.5015
123.869
145.843
149.85
149.706
148.738
147.959
148.567
150.871
155.39
182.555
113.577
116.043
116.689
114.958
111.862
105.997
88.7291
73.6795
85.3247
127.72
145.343
150.268
150.357
149.576
147.728
147.527
150.811
156.172
186.929
101.104
109.763
113.887
113.809
112.146
107.756
98.6957
90.7218
100.265
128.932
143.91
149.173
150.076
148.297
142.608
141.044
144.755
151.595
184.996
74.0306
85.5352
115.85
115.686
114.27
111.735
108.381
106.403
112.47
127.378
139.177
145.655
147.66
131.521
96.0783
100.237
122.146
136.351
175.423
19.0737
53.0472
115.529
116.822
115.585
114.336
113.182
113.85
117.897
124.861
132.309
136.842
128.697
108.626
33.6698
16.7044
52.6526
82.2802
142.16
6.73011
10.2558
61.4
115.484
116.193
115.25
114.466
114.594
117.201
122.242
127.267
140.382
146.55
108.451
-23.3499
-76.6718
-31.2133
14.8279
84.3444
6.71752
9.78199
32.6636
98.5629
114.042
115.084
112.434
111.371
114.675
114.567
133.655
145.406
126.874
78.6117
-47.7575
-107.343
-67.7072
-29.055
22.9177
5.64765
7.08301
19.7108
72.4781
99.952
87.4974
94.4308
100.531
108.506
124.546
92.7502
84.6347
72.0794
37.3785
-64.4182
-83.5172
-53.5138
-16.6221
20.0132
3.86865
4.16769
14.4192
48.4557
66.0067
76.5526
95.5865
96.9203
60.1418
37.8172
38.836
44.4993
34.3552
7.81457
-69.0691
-69.5564
-24.5605
15.4878
46.2468
2.56911
2.29691
6.30672
-9.77109
-13.2587
5.42958
26.5734
27.2837
9.70353
12.3803
19.506
23.8176
21.3786
23.9133
-30.6727
-34.7117
6.4504
39.465
66.378
1.20412
1.31319
0.201937
0.0852363
17.5709
26.8276
7.36592
3.77804
4.5526
5.21476
5.1856
5.15055
5.44951
3.76512
-2.14336
18.6828
54.5827
76.2427
74.2225
0.697268
0.467846
0.416546
0.630903
0.728614
0.987624
1.46625
1.53831
2.06793
2.06274
1.77771
1.65118
1.84963
1.34089
0.989491
8.4686
64.6421
84.4951
46.8165
0.445598
0.176143
0.24042
0.539073
0.803061
0.934538
0.985564
1.10361
1.20679
1.18321
1.03277
0.907062
0.843091
0.744852
0.936994
2.32005
10.6062
34.1036
26.2142
0.624972
0.276607
0.329801
0.580626
0.869487
0.965164
0.962979
0.984083
0.915313
0.700732
0.455567
0.302471
0.245297
0.346195
0.671827
1.29065
3.84386
13.8979
54.8385
1.08772
0.68986
0.643235
0.773437
0.909139
0.95044
0.910549
0.834317
0.673615
0.42821
0.16969
-0.0290829
-0.101422
0.0654234
0.501156
1.02529
2.22952
7.5715
37.3999
1.52611
1.14737
0.988456
0.965746
0.983494
0.976489
0.932081
0.853077
0.689854
0.443077
0.201216
0.00813461
-0.0779807
0.0446949
0.437774
0.895026
1.70322
3.64154
13.0865
1.7529
1.44257
1.2491
1.14977
1.09743
1.04997
0.986875
0.895457
0.760139
0.589686
0.414442
0.269574
0.2146
0.307863
0.618414
0.993447
1.60804
2.53079
5.75075
1.8317
1.58584
1.40251
1.28026
1.19648
1.12845
1.0566
0.97306
0.870939
0.754885
0.647329
0.578795
0.584097
0.692132
0.936654
1.20547
1.60386
1.93717
4.31374
1.84928
1.65052
1.48717
1.3628
1.26743
1.1883
1.11491
1.04139
0.965033
0.890145
0.832016
0.814934
0.869959
1.01026
1.23015
1.4262
1.64618
1.57092
2.79639
1.83558
1.67236
1.52975
1.41212
1.31601
1.23495
1.16318
1.09719
1.03662
0.986482
0.95861
0.97094
1.04892
1.20454
1.4182
1.57924
1.69555
1.59304
2.17799
1.7999
1.66492
1.54252
1.4365
1.34623
1.26854
1.20026
1.13967
1.08788
1.05078
1.03881
1.06517
1.14973
1.30415
1.51147
1.66087
1.74382
1.65822
2.15644
1.74861
1.63636
1.53246
1.43972
1.35837
1.28657
1.22234
1.16508
1.11742
1.08632
1.08161
1.11334
1.19659
1.34215
1.53974
1.68329
1.76199
1.68179
2.11322
1.68587
1.59201
1.50426
1.42454
1.35308
1.28833
1.2282
1.17231
1.12513
1.0954
1.09261
1.12476
1.20297
1.33617
1.52041
1.65534
1.75452
1.66409
1.96221
1.61414
1.53527
1.46128
1.3935
1.33194
1.27473
1.21875
1.16262
1.11284
1.08064
1.07552
1.10422
1.17472
1.292
1.45451
1.56861
1.72128
1.63389
1.83898
1.53501
1.46842
1.40597
1.34868
1.29634
1.24677
1.19485
1.13702
1.08199
1.04389
1.0325
1.05477
1.11633
1.21429
1.34223
1.41084
1.55419
1.5908
2.81722
1.44966
1.3931
1.34015
1.29171
1.24748
1.20528
1.15707
1.09623
1.03425
0.988236
0.96803
0.982655
1.03778
1.11254
1.19782
1.238
1.25127
1.26666
1.34748
1.35901
1.31066
1.26541
1.22403
1.18661
1.151
1.10639
1.04316
0.975555
0.922653
0.893551
0.899657
0.938322
1.00879
1.05064
1.07381
1.05991
1.14581
1.47768
1.26394
1.22235
1.18336
1.14762
1.11527
1.08473
1.0447
0.983421
0.915495
0.860211
0.82652
0.829668
0.867788
0.927298
0.936592
0.918481
0.951659
1.02212
1.25822
1.16528
1.1294
1.09557
1.06433
1.03569
1.00885
0.975138
0.922049
0.861186
0.808992
0.777464
0.780349
0.820296
0.871331
0.873117
0.830623
0.913394
0.978988
1.52786
1.06373
1.03281
1.00344
0.975994
0.950378
0.926365
0.899056
0.858936
0.812171
0.767995
0.745326
0.752193
0.783329
0.826985
0.839448
0.813591
0.88367
0.911434
1.33346
0.959723
0.93323
0.907845
0.8838
0.86095
0.839111
0.816372
0.788449
0.757886
0.72806
0.714725
0.721616
0.746178
0.771583
0.795424
0.796252
0.851171
0.850676
1.17908
0.853426
0.830951
0.809202
0.788323
0.768144
0.748463
0.728726
0.707919
0.68896
0.672471
0.665052
0.668596
0.68387
0.702017
0.731101
0.749829
0.79941
0.779565
1.122
0.744854
0.726026
0.707646
0.689789
0.672308
0.655121
0.638213
0.621155
0.606727
0.597303
0.59352
0.597284
0.60964
0.626974
0.656304
0.680283
0.730766
0.700633
1.04932
0.634115
0.618596
0.603309
0.588344
0.573532
0.558974
0.545028
0.531165
0.51896
0.511906
0.511221
0.516693
0.529203
0.543905
0.569891
0.589333
0.638926
0.612887
0.945243
0.521499
0.509023
0.496615
0.48436
0.472075
0.45998
0.448546
0.437257
0.427231
0.421807
0.422247
0.427428
0.437258
0.446875
0.469712
0.479787
0.528274
0.510577
0.796771
0.407374
0.397761
0.388096
0.378372
0.36847
0.358556
0.349105
0.33973
0.331479
0.326808
0.326406
0.329142
0.335141
0.33949
0.358428
0.356985
0.412298
0.397117
0.548058
0.292057
0.285185
0.278163
0.270893
0.263275
0.25536
0.247539
0.239672
0.232715
0.228123
0.226073
0.225613
0.226763
0.225232
0.236157
0.221001
0.271849
0.221826
0.811268
0.175814
0.171652
0.167261
0.162435
0.15706
0.151148
0.144894
0.138336
0.132152
0.127085
0.122982
0.119068
0.11505
0.10807
0.10652
0.0784615
0.125075
-0.104521
1.60703
0.0588104
0.0573826
0.0557538
0.0535886
0.0506158
0.0468324
0.0421405
0.0366177
0.0309803
0.0253697
0.0191935
0.0117972
0.0030012
-0.00850064
-0.0188488
-0.0481303
-0.0551904
-0.219076
-0.16351
)
;

boundaryField
{
    leftWall
    {
        type            calculated;
        value           nonuniform List<scalar> 
50
(
506.596
447.371
387.22
326.714
266.4
206.236
146.211
84.396
30.2597
7.36646
6.91113
6.59813
6.38259
6.19048
6.00989
5.83262
5.65615
5.47915
5.30171
5.12372
4.94502
4.76567
4.58583
4.40569
4.22546
4.04543
3.86585
3.68697
3.50904
3.33227
3.15688
2.98292
2.81046
2.63955
2.47023
2.30251
2.13635
1.9717
1.80848
1.64662
1.486
1.32654
1.16809
1.01053
0.853742
0.697596
0.54196
0.386725
0.231844
0.0771452
)
;
    }
    rightWall
    {
        type            calculated;
        value           nonuniform List<scalar> 
50
(
1197.21
1142.39
1081.52
1007.09
912.465
800.646
669.625
523.059
329.368
218.411
181.815
182.555
186.929
184.996
175.423
142.16
84.3444
22.9177
20.0132
46.2468
66.378
74.2225
46.8165
26.2142
54.8385
37.3999
13.0865
5.75075
4.31374
2.79639
2.17799
2.15644
2.11322
1.96221
1.83898
2.81722
1.34748
1.47768
1.25822
1.52786
1.33346
1.17908
1.122
1.04932
0.945243
0.796771
0.548058
0.811268
1.60703
-0.16351
)
;
    }
    lowerWall
    {
        type            calculated;
        value           nonuniform List<scalar> 
62
(
536.025
535.152
536.674
541.295
550.796
565.98
585.964
607.178
627.62
648.127
669.362
691.293
713.522
735.603
757.177
777.56
795.85
811.389
822.199
824.749
827.206
850.412
884.993
855.607
791.357
728.925
672.949
622.609
573.147
522.192
475.402
492.496
508.254
521.225
526.548
820.397
755.121
679.444
631.242
606.791
587.574
558.765
514.497
839.993
782.407
882.432
1029.85
1137.37
1185.39
1269.07
1344.86
1193.46
760.192
447.531
322.946
296.938
298.348
356.298
615.051
1076.39
1326.28
1221.24
)
;
    }
    atmosphere
    {
        type            calculated;
        value           nonuniform List<scalar> 
46
(
0
0
0
0
0
0
0
0
0
0
0
0
0
0
0
0
0
0
0
0
0
0
0
0
0
0
0
0
0
-4.36556e-05
-0.000754167
-0.002507
-0.0052199
-0.00923355
-0.0144983
-0.0195769
-0.0250394
-0.0321131
-0.0414028
-0.05236
-0.0658157
-0.0748002
-0.103458
-0.08345
-0.222191
-0.312365
)
;
    }
    defaultFaces
    {
        type            empty;
    }
}


// ************************************************************************* //
