/*--------------------------------*- C++ -*----------------------------------*\
  =========                 |
  \\      /  F ield         | OpenFOAM: The Open Source CFD Toolbox
   \\    /   O peration     | Website:  https://openfoam.org
    \\  /    A nd           | Version:  13
     \\/     M anipulation  |
\*---------------------------------------------------------------------------*/
FoamFile
{
    format      ascii;
    class       volScalarField;
    location    "0.65";
    object      p_rgh;
}
// * * * * * * * * * * * * * * * * * * * * * * * * * * * * * * * * * * * * * //

dimensions      [1 -1 -2 0 0 0 0];

internalField   nonuniform List<scalar> 
2268
(
536.025
535.152
536.674
541.295
550.796
565.98
585.964
607.178
627.62
648.127
669.362
691.293
713.522
735.603
757.177
777.56
795.85
811.389
822.199
824.749
827.206
850.412
884.993
535.659
534.322
535.67
540.174
549.495
564.652
584.98
606.606
627.271
647.873
669.104
691.067
713.366
735.523
757.098
777.578
796.293
812.887
824.192
823.645
818.818
838.091
879.464
534.367
532.723
534.068
538.168
546.924
561.899
582.926
605.457
626.621
647.421
668.824
690.891
713.24
735.429
756.884
777.161
795.945
812.7
828.197
822.945
813.635
824.866
875.122
532.719
530.757
531.91
535.3
543.091
557.777
579.94
603.874
625.827
646.891
668.467
690.692
713.163
735.513
757.001
777.144
795.854
812.855
827.731
833.474
818.743
828.664
877.435
531.264
528.818
529.509
531.964
538.401
553.219
576.852
602.181
624.923
646.345
668.132
690.526
713.138
735.797
757.457
777.567
796.312
813.571
828.688
838.687
837.293
852.642
887.471
529.959
527.333
526.861
528.151
534.743
550.105
574.478
600.409
623.568
645.615
667.858
690.424
713.151
736.303
758.218
778.291
797.155
814.753
830.669
843.788
854.91
867.403
896.868
528.793
527.692
525.363
526.577
532.998
548.736
572.67
598.073
621.178
644.172
667.342
690.371
713.183
737.162
759.27
779.268
798.257
816.114
832.733
847.968
862.282
877.728
904.751
517.789
502.871
487.791
478.778
486.605
509.213
552.036
591.37
617.446
642.323
666.673
690.293
713.724
737.728
760.455
780.444
799.6
817.651
834.805
851.633
868.356
887.158
916.815
839.993
782.407
882.432
1029.85
1137.37
1185.39
1269.07
1344.86
1193.46
760.192
447.531
322.946
296.938
298.348
356.298
615.051
1076.39
1326.28
1221.24
813.521
736.424
847.447
1011.81
1115.21
1174.25
1268.78
1361.7
1116.45
571.425
298.491
257.542
263.561
282.436
334.947
539.001
971.62
1280.59
1222.29
749.644
704.219
818.614
987.301
1083.19
1137.97
1275.36
1336.79
741.537
257.752
172.453
167.07
169.934
178.949
206.623
323.904
725.709
1198.13
1214.68
721.502
678.72
798.715
954.588
1037.48
1085.37
1252.12
1210.58
400.456
173.044
155.149
152.464
151.674
151.346
153.711
182.538
382.435
1036.38
1193.52
723.084
701.72
791.577
916.346
976.352
1008.86
1203.38
954.36
234.185
158.967
153.289
152.206
151.363
150.587
151.538
162.543
231.046
713.762
1152.15
783.004
783.365
796.014
873.165
893.536
902.222
1139.22
738.156
199.505
154.817
152.657
152.085
151.021
150.154
150.446
155.507
186.521
438.698
1093.52
935.91
841.99
807.373
830.756
772.854
748.045
1019.32
807.839
201.966
154.906
152.447
152.08
150.798
149.761
149.663
152.204
166.61
313.667
1015.4
955.896
875.646
821.431
791.369
543.815
450.358
888.707
933.38
225.723
154.962
152.511
152.067
150.54
149.326
149.032
150.496
156.588
255.198
920.718
227.412
202.057
187.07
198.312
226.855
282.235
365.691
457.964
541.919
612.718
665.054
689.975
714.539
739.338
763.279
782.57
801.921
820.035
837.732
855.84
876.05
900.182
934.469
8.02759
7.7113
9.6238
27.9539
51.7028
70.0457
78.0897
95.0291
145.87
233.564
354.383
481.152
578.012
672.2
765.481
788.23
806.486
822.963
840.418
859.713
881.896
910.274
949.216
7.69707
7.55242
7.43861
7.45602
7.41486
7.35674
7.32917
7.34697
7.37713
7.40217
11.7949
54.5939
112.955
201.521
319.864
466.298
562.731
626.18
713.712
786.247
830.035
877.896
951.743
7.50743
7.39645
7.30314
7.3388
7.35504
7.30072
7.26477
7.28913
7.34816
7.40456
7.45025
7.49464
7.60139
7.713
7.76467
7.87195
35.9857
56.4299
93.3886
155.769
223.054
311.408
568.106
7.41684
7.36659
7.32836
7.35145
7.34476
7.29469
7.26629
7.2729
7.31325
7.37093
7.42566
7.49681
7.5784
7.66174
7.76045
7.88012
7.96609
8.10145
8.22573
8.18295
7.83287
11.1773
263.981
7.34992
7.34496
7.32176
7.31021
7.30509
7.29163
7.29023
7.31263
7.34119
7.37759
7.42473
7.47888
7.55041
7.62883
7.70928
7.79157
7.88594
8.0052
8.12541
8.22399
8.42878
10.0748
93.1575
7.29452
7.29423
7.28125
7.27347
7.27084
7.2697
7.27561
7.29077
7.31387
7.34905
7.39347
7.4425
7.50721
7.58136
7.6655
7.74162
7.81257
7.89682
7.97154
8.00558
8.18544
10.4673
11.8989
7.24245
7.24037
7.23548
7.23501
7.23575
7.23782
7.24696
7.26459
7.29037
7.32287
7.35899
7.4005
7.45162
7.50979
7.57215
7.637
7.70649
7.78078
7.85622
7.91764
8.06914
8.82413
9.28357
7.19118
7.18982
7.18837
7.18956
7.19262
7.1983
7.20926
7.22608
7.24835
7.27589
7.30844
7.34607
7.38999
7.43927
7.49332
7.54947
7.60647
7.6656
7.73047
7.80159
7.9147
8.35974
9.09018
7.13936
7.13888
7.13926
7.14115
7.14549
7.15253
7.16339
7.1784
7.1979
7.22205
7.25048
7.28247
7.31856
7.35897
7.40204
7.44708
7.49298
7.54041
7.59389
7.66027
7.75131
8.16893
8.96327
7.08713
7.08705
7.08851
7.09116
7.096
7.10279
7.11269
7.12589
7.14272
7.16306
7.18646
7.21245
7.24087
7.27148
7.30375
7.33659
7.36936
7.403
7.44095
7.48884
7.55377
8.07067
8.59219
7.03433
7.0346
7.03639
7.03916
7.04378
7.04992
7.0584
7.0693
7.08276
7.09867
7.11677
7.13666
7.15783
7.17972
7.20159
7.22235
7.24123
7.25824
7.2753
7.29509
7.34641
7.67796
7.70334
6.98082
6.98131
6.98301
6.98547
6.98938
6.99447
7.00116
7.00946
7.01942
7.03094
7.04371
7.05722
7.07087
7.08395
7.09553
7.10445
7.10945
7.10933
7.10365
7.09232
7.07762
7.03217
6.87407
6.92667
6.92719
6.92858
6.93054
6.93347
6.9372
6.94191
6.94754
6.95404
6.96121
6.96869
6.97591
6.9822
6.98671
6.98831
6.98561
6.97681
6.95979
6.93181
6.88869
6.81912
6.68961
6.43263
6.87202
6.87245
6.87341
6.8747
6.87653
6.87876
6.88142
6.88437
6.88747
6.89043
6.89283
6.89409
6.89344
6.8899
6.88219
6.8686
6.84687
6.81408
6.76604
6.69516
6.5889
6.41749
6.09497
6.81707
6.81733
6.81779
6.81831
6.81899
6.81969
6.82031
6.82067
6.82052
6.81954
6.81725
6.81301
6.80599
6.79511
6.77897
6.75564
6.72254
6.67618
6.61163
6.52013
6.38657
6.18474
5.84247
6.76204
6.76209
6.76203
6.76176
6.76129
6.76049
6.75916
6.75709
6.75397
6.7494
6.74287
6.73371
6.72105
6.70374
6.6803
6.64871
6.60625
6.54925
6.47256
6.36798
6.22046
6.0067
5.68044
6.7072
6.70703
6.70646
6.70541
6.70385
6.70163
6.69851
6.69423
6.68844
6.6807
6.67048
6.65707
6.6396
6.61693
6.58754
6.54942
6.49991
6.43542
6.35118
6.24099
6.09107
5.88511
5.59342
6.65282
6.65242
6.65137
6.64959
6.64703
6.64351
6.6388
6.63258
6.62449
6.61405
6.60071
6.5838
6.56243
6.53552
6.50159
6.45879
6.40462
6.33569
6.24737
6.1401
5.9948
5.80543
5.55901
6.59914
6.59853
6.59706
6.59461
6.59115
6.58649
6.5804
6.57253
6.56252
6.54989
6.53408
6.5144
6.49006
6.46004
6.42298
6.37724
6.32087
6.25072
6.16391
6.05714
5.9229
5.75486
5.54766
6.5464
6.54561
6.54376
6.54073
6.53649
6.53086
6.5236
6.51439
6.50285
6.48852
6.47088
6.44918
6.42273
6.39075
6.35186
6.30467
6.24755
6.1782
6.09426
5.99293
5.8703
5.72229
5.54643
6.49482
6.49383
6.49171
6.48816
6.48328
6.47685
6.46865
6.45839
6.44568
6.43009
6.41132
6.38826
6.36056
6.3274
6.28774
6.24038
6.184
6.1169
6.03727
5.94312
5.83222
5.70228
5.55255
6.44463
6.44329
6.44109
6.43706
6.4317
6.42465
6.41574
6.40471
6.3912
6.37483
6.35513
6.33145
6.30322
6.26977
6.23027
6.18377
6.12919
6.06537
5.99094
5.9046
5.80509
5.69131
5.56351
6.39586
6.39439
6.39188
6.38763
6.38186
6.37435
6.36495
6.3534
6.33938
6.32256
6.30248
6.27863
6.25048
6.21743
6.17884
6.13396
6.08198
6.02205
5.95327
5.87481
5.78603
5.68652
5.57696
6.34859
6.34701
6.34434
6.3399
6.33387
6.32606
6.31635
6.30451
6.29026
6.27329
6.25322
6.22962
6.20201
6.16991
6.13278
6.09007
6.04118
5.98551
5.92251
5.85169
5.77279
5.6858
5.59152
6.30288
6.30123
6.29848
6.29393
6.28776
6.27981
6.26997
6.25804
6.2438
6.22696
6.20721
6.18418
6.15749
6.12673
6.09147
6.05129
6.00577
5.95453
5.89722
5.83361
5.7637
5.68768
5.60635
6.25876
6.25707
6.2543
6.24972
6.24353
6.23558
6.22578
6.21396
6.19992
6.18345
6.16427
6.14209
6.11659
6.08744
6.05432
6.0169
5.9749
5.92808
5.87626
5.81938
5.75758
5.69116
5.62088
6.21623
6.21452
6.21179
6.20725
6.20115
6.19332
6.18371
6.17216
6.15852
6.14261
6.12421
6.10309
6.07899
6.05164
6.02081
5.98627
5.94782
5.90533
5.85873
5.80807
5.75356
5.69555
5.63476
6.17527
6.17354
6.17091
6.16647
6.16056
6.15296
6.14366
6.13254
6.11946
6.10428
6.08682
6.06691
6.04435
6.01893
5.99049
5.95886
5.92391
5.88559
5.8439
5.79896
5.751
5.70039
5.64776
6.13581
6.1341
6.13159
6.12732
6.12166
6.11438
6.10552
6.09494
6.08255
6.06824
6.05186
6.03328
6.01236
5.98895
5.96293
5.93418
5.90265
5.8683
5.8312
5.7915
5.74942
5.70533
5.65977
6.09779
6.09613
6.09375
6.08969
6.08435
6.07748
6.06914
6.05921
6.04762
6.03427
6.01908
6.00193
5.98272
5.96135
5.93775
5.91183
5.88357
5.85299
5.82017
5.78526
5.74848
5.71016
5.67075
6.06112
6.05955
6.05731
6.0535
6.04852
6.04212
6.03438
6.02517
6.01446
6.00217
5.98824
5.97258
5.95513
5.93582
5.9146
5.89143
5.86631
5.83929
5.81044
5.77992
5.74794
5.71476
5.68077
6.0257
6.02425
6.02216
6.01864
6.01406
6.00817
6.00108
5.99266
5.98289
5.97173
5.95911
5.94499
5.92931
5.91204
5.89316
5.87265
5.85053
5.82686
5.80171
5.77523
5.7476
5.71905
5.68989
5.99142
5.99011
5.98818
5.98497
5.98082
5.97548
5.96908
5.9615
5.95272
5.94272
5.93145
5.91888
5.90497
5.88972
5.87312
5.85518
5.83591
5.81539
5.79369
5.77093
5.74727
5.72291
5.69808
5.95817
5.95703
5.95526
5.95237
5.94867
5.94391
5.93824
5.93151
5.92376
5.91494
5.90504
5.89402
5.88188
5.86861
5.85422
5.83873
5.82218
5.80461
5.7861
5.76677
5.74675
5.72619
5.70527
5.92581
5.92488
5.92326
5.92072
5.91748
5.91333
5.9084
5.90255
5.89584
5.88822
5.87967
5.8702
5.8598
5.84846
5.83621
5.82307
5.80907
5.79426
5.77873
5.76256
5.74586
5.72875
5.71137
5.89421
5.89351
5.89208
5.8899
5.88714
5.8836
5.87941
5.87446
5.86879
5.86237
5.85519
5.84724
5.83853
5.82907
5.81887
5.80797
5.79639
5.78418
5.77141
5.75816
5.7445
5.73054
5.71636
5.86326
5.8628
5.86156
5.85975
5.85748
5.85457
5.85115
5.84709
5.84247
5.83724
5.8314
5.82495
5.8179
5.81026
5.80204
5.79327
5.78399
5.77423
5.76404
5.75349
5.74265
5.73157
5.72034
5.83282
5.8326
5.83156
5.83014
5.82837
5.82609
5.82344
5.82028
5.8167
5.81265
5.80814
5.80317
5.79774
5.79186
5.78555
5.77884
5.77174
5.7643
5.75656
5.74855
5.74033
5.73195
5.72344
5.80278
5.80278
5.80196
5.80094
5.79967
5.79804
5.79615
5.7939
5.79135
5.78847
5.78527
5.78174
5.7779
5.77375
5.7693
5.76457
5.75958
5.75436
5.74893
5.74333
5.73759
5.73174
5.7258
5.77309
5.77322
5.77265
5.77204
5.77129
5.7703
5.76918
5.76783
5.76631
5.76459
5.76268
5.76058
5.75829
5.75583
5.75319
5.75038
5.74743
5.74435
5.74115
5.73785
5.73447
5.73103
5.72754
5.74359
5.74379
5.74355
5.74335
5.7431
5.74276
5.74239
5.74194
5.74144
5.74087
5.74023
5.73954
5.73878
5.73797
5.7371
5.73618
5.73521
5.7342
5.73316
5.73208
5.73098
5.72986
5.72872
963.345
979.104
992.074
997.397
981.033
998.882
1012.49
1020.74
1004.9
1027.05
1035.53
1033.42
881.329
958.384
771.829
667.141
791.195
776.881
289.62
143.455
407.218
395.481
150.793
114.095
9.8633
45.9406
341.701
504.853
9.42999
10.3461
12.7464
58.1389
9.35429
9.68291
10.5004
12.6775
9.3251
9.67608
10.3889
11.604
8.68199
8.99576
9.60781
10.5814
7.5826
7.7361
8.45038
10.133
6.81447
6.97507
7.68696
10.3613
6.22081
6.24863
6.79688
15.3503
5.76308
5.65747
6.63813
13.7905
5.43817
5.28708
6.27954
11.1672
5.26129
4.96154
5.29637
5.2758
5.25797
4.99693
4.68801
4.36142
5.31335
5.13233
4.92914
4.71004
5.35724
5.22353
5.08072
4.93078
5.39164
5.28552
5.17544
5.06257
5.42571
5.34
5.25213
5.16289
5.45863
5.38856
5.31718
5.24503
5.48909
5.43088
5.3719
5.31254
5.51719
5.46829
5.41894
5.36947
5.54308
5.50168
5.46006
5.41848
5.5668
5.53157
5.49625
5.46108
5.58839
5.55829
5.52819
5.49827
5.60792
5.58213
5.55637
5.53081
5.62548
5.60333
5.58122
5.5593
5.64123
5.6222
5.6032
5.58435
5.65541
5.63906
5.62275
5.60654
5.66818
5.65421
5.64025
5.62638
5.67965
5.66779
5.65594
5.64415
5.68978
5.67982
5.66987
5.65997
5.69851
5.69026
5.68202
5.67381
5.70589
5.69917
5.69246
5.68577
5.71204
5.70671
5.70139
5.69608
5.71715
5.71312
5.70908
5.70504
5.72141
5.71859
5.71576
5.71291
5.72496
5.72329
5.72162
5.71993
5.72787
5.72733
5.72677
5.72621
992.149
931.36
841.111
630.25
269.201
185.236
602.866
859.596
272.281
155.708
153.103
151.929
150.094
148.6
148.215
149.119
151.229
220.202
792.693
1022.08
968.61
745.837
165.144
86.8496
92.2539
466.268
675.196
543.713
200.498
151.481
151.275
149.74
148.156
147.825
148.643
149.893
205.678
733.516
1014.49
793.143
178.947
107.735
74.217
285.924
552.281
588.853
655.593
227.322
149.084
150.69
149.841
148.604
148.207
148.994
150.425
202.278
773.77
507.695
169.457
125.734
116.619
222.882
460.142
475.547
456.06
462.201
197.746
149.281
150.931
150.691
149.722
149.093
149.803
152.05
200.518
848.368
121.802
119.244
118.476
116.653
113.432
107.999
100.02
93.3887
106.849
144.873
147.611
151.436
151.509
151.137
150.207
150.085
152.568
200.919
924.5
118.628
134.509
133.521
115.541
113.69
109.464
104.875
98.1364
104.159
130.976
145.305
150.515
151.468
153.305
208.865
186.228
148.805
250.352
1009.31
531.615
546.178
343.517
117.396
115.908
113.42
111.099
109.377
115.282
130.168
141.065
147.158
175.351
429.906
882.63
770.537
184.862
472.005
1104.38
331.086
558.582
587.253
142.65
117.373
116.134
115.03
115.85
120.303
128.154
135.399
268.82
785.708
1201.62
1224.95
1178.33
278.729
741.294
1164.82
33.7675
373.495
583.506
463.495
118.14
117.192
116.423
116.628
119.521
125.889
199.354
839.641
1363.31
1405.76
1274.24
1175.21
674.917
896.971
1197.81
14.9754
108.406
486.274
628.027
223.618
117.201
124.043
147.182
172.944
373.447
790.702
930.361
651.122
1075.45
1357.65
871.496
823.567
515.376
1216.04
12.3526
20.0054
185.455
795.319
1025.72
914.632
990.874
1044.93
1086.5
1094.98
1012.03
320.59
220.48
783.938
1469.99
1004.28
542.061
568.223
1050.5
14.6481
45.3422
752.834
1297.61
1317.97
1331.41
1350.45
1351.78
1312.07
600.858
63.1435
109.44
169.79
966.741
1605.85
1633.13
929.333
854.968
1694.27
13.0499
18.11
512.114
1208.36
1317.91
1339.28
1363.66
944.973
67.7617
23.9973
35.629
119.835
240.982
596.845
1500.65
1826.35
1876.56
1903.7
1965.33
24.5021
11.1516
2.39903
12.9116
636.727
972.797
379.242
16.5513
12.0011
15.4315
69.8782
74.0292
24.8651
8.72057
245.937
1641.31
2059.17
2091.44
2090.29
16.9607
2.76957
2.70923
2.96386
3.09333
3.28449
32.6185
22.5654
7.87272
4.87127
4.06586
3.94623
4.18141
3.87335
4.79716
165.504
1463.88
2187.57
2178.76
6.33511
2.59418
2.65818
2.95701
3.22083
3.35295
3.40386
3.51959
3.62425
3.59494
3.44483
3.32053
3.26389
3.21174
3.59384
6.24071
22.0341
1015.12
2029.4
3.54179
2.89444
2.89057
3.12583
3.46534
3.62687
3.62055
3.52419
3.45226
3.23756
2.993
2.84053
2.78682
2.90039
3.28625
4.08398
7.82758
112.582
1802.89
3.83036
3.44413
3.3292
3.43705
3.57228
3.62164
3.61693
3.52309
3.34213
3.09016
2.83627
2.6715
2.63238
2.80382
3.2469
3.82252
5.97845
73.8152
510.293
4.32443
3.95133
3.78495
3.75397
3.77053
3.76347
3.71906
3.6404
3.47738
3.23015
2.98824
2.8522
2.89957
3.02357
3.40678
3.81482
6.68486
27.4815
107.156
4.66632
4.35583
4.16194
4.06221
4.00962
3.96214
3.89905
3.80764
3.67235
3.5019
3.32666
3.1818
3.26788
3.42136
3.73111
4.02945
9.33326
9.00962
84.1599
4.86918
4.62331
4.43995
4.31764
4.23384
4.1658
4.09398
4.01067
3.90874
3.79253
3.68476
3.61624
3.62155
3.88267
4.184
4.35865
4.65553
7.56631
146.932
5.01184
4.81308
4.64973
4.52535
4.42998
4.35085
4.278
4.20495
4.12859
4.05354
3.99474
3.97759
4.03263
4.18776
4.59644
4.63762
4.82171
5.49195
308.648
5.12333
4.9601
4.81749
4.69987
4.60376
4.5227
4.45111
4.38566
4.32543
4.27549
4.24764
4.25893
4.33679
4.49732
4.76547
4.88478
4.99562
4.93094
328.63
5.21285
5.07786
4.95546
4.84944
4.75917
4.68148
4.6132
4.55261
4.50167
4.46919
4.45723
4.48008
4.56348
4.73608
4.93549
5.08483
5.16785
5.08624
341.259
5.28675
5.17449
5.0706
4.97786
4.8965
4.82471
4.76048
4.70321
4.65945
4.63013
4.62542
4.65517
4.73551
4.89583
5.09329
5.23237
5.31156
5.23857
352.062
5.3492
5.25534
5.16759
5.08787
5.01641
4.95166
4.89153
4.83564
4.78847
4.7635
4.76182
4.79205
4.86719
5.01256
5.19167
5.32824
5.42923
5.36286
362.374
5.40266
5.32379
5.24981
5.18203
5.12047
5.06326
5.00731
4.95118
4.90139
4.86942
4.86998
4.89772
4.96429
5.08613
5.24524
5.39999
5.56668
5.53969
371.277
5.44873
5.38214
5.31969
5.2624
5.21006
5.16053
5.10868
5.05086
4.99574
4.95764
4.95015
4.97393
5.03314
5.13218
5.25715
5.36554
9.5769
8.37582
296.836
5.48858
5.43202
5.37907
5.33063
5.2864
5.24419
5.19599
5.13526
5.0733
5.02719
5.00927
5.02719
5.08143
5.15269
5.23797
5.3077
12.867
11.7885
11.7065
5.52312
5.47477
5.42952
5.38814
5.35072
5.31512
5.2705
5.20738
5.13989
5.08687
5.05804
5.06744
5.10439
5.17416
5.21602
6.01005
13.0965
9.12821
9.98519
5.55324
5.51165
5.47266
5.43692
5.40458
5.37403
5.33416
5.27478
5.2053
5.14964
5.11595
5.1191
5.15722
5.2444
5.2272
8.19067
13.2875
5.84331
127.297
5.57978
5.5439
5.51007
5.47883
5.45019
5.42335
5.39088
5.34253
5.27817
5.22363
5.1921
5.19499
5.2382
5.33494
5.2892
7.80264
10.1181
5.39447
365.831
5.60342
5.5725
5.54313
5.51569
5.49008
5.46606
5.44059
5.40478
5.35785
5.30798
5.28527
5.29205
5.3232
5.4218
5.3867
5.35359
5.42348
5.45158
377.27
5.62461
5.59812
5.57273
5.54869
5.52584
5.504
5.48155
5.45961
5.42913
5.3941
5.38829
5.4
5.60441
5.63643
5.49915
5.46122
5.51611
5.51568
385.21
5.64351
5.62103
5.59928
5.5784
5.55823
5.53854
5.51881
5.49877
5.48459
5.4632
5.53134
5.62384
5.68265
5.69823
5.55758
5.53991
5.5895
5.5697
412.924
5.66013
5.6413
5.62292
5.60506
5.58758
5.5704
5.55351
5.53643
5.522
5.51258
5.53264
5.62794
5.6363
5.54225
5.57158
5.59556
5.64605
5.61592
443.299
5.67459
5.65907
5.64378
5.62881
5.614
5.59944
5.5855
5.57164
5.55943
5.55238
5.55169
5.55716
5.56967
5.58438
5.61036
5.6298
5.6794
7.2867
454.641
5.68716
5.67469
5.66228
5.65002
5.63774
5.62565
5.61421
5.60292
5.5929
5.58748
5.58791
5.59309
5.60292
5.61254
5.63538
5.64545
5.69394
9.47697
465.761
5.69823
5.68862
5.67896
5.66923
5.65933
5.64942
5.63996
5.63059
5.62234
5.61767
5.61727
5.62
5.626
5.63035
5.64929
5.64784
5.70731
8.87108
476.656
5.70811
5.70124
5.69422
5.68695
5.67933
5.67141
5.66359
5.65573
5.64877
5.64418
5.64213
5.64167
5.64282
5.64129
5.65221
5.63705
5.6879
12.2326
486.691
5.71706
5.7129
5.70851
5.70368
5.69831
5.6924
5.68614
5.67958
5.6734
5.66833
5.66423
5.66032
5.6563
5.64932
5.64777
5.61971
5.66632
16.0988
182.215
5.72525
5.72383
5.7222
5.72003
5.71706
5.71328
5.70858
5.70306
5.69742
5.69181
5.68564
5.67824
5.66944
5.65794
5.64759
5.61831
5.61125
5.44737
5.50293
)
;

boundaryField
{
    leftWall
    {
        type            fixedFluxPressure;
        gradient        uniform 0;
        value           nonuniform List<scalar> 
50
(
536.025
535.659
534.367
532.719
531.264
529.959
528.793
517.789
227.412
8.02759
7.69707
7.50743
7.41684
7.34992
7.29452
7.24245
7.19118
7.13936
7.08713
7.03433
6.98082
6.92667
6.87202
6.81707
6.76204
6.7072
6.65282
6.59914
6.5464
6.49482
6.44463
6.39586
6.34859
6.30288
6.25876
6.21623
6.17527
6.13581
6.09779
6.06112
6.0257
5.99142
5.95817
5.92581
5.89421
5.86326
5.83282
5.80278
5.77309
5.74359
)
;
    }
    rightWall
    {
        type            fixedFluxPressure;
        gradient        uniform 0;
        value           nonuniform List<scalar> 
50
(
1221.24
1222.29
1214.68
1193.52
1152.15
1093.52
1015.4
920.718
792.693
733.516
773.77
848.368
924.5
1009.31
1104.38
1164.82
1197.81
1216.04
1050.5
1694.27
1965.33
2090.29
2178.76
2029.4
1802.89
510.293
107.156
84.1599
146.932
308.648
328.63
341.259
352.062
362.374
371.277
296.836
11.7065
9.98519
127.297
365.831
377.27
385.21
412.924
443.299
454.641
465.761
476.656
486.691
182.215
5.50293
)
;
    }
    lowerWall
    {
        type            fixedFluxPressure;
        gradient        uniform 0;
        value           nonuniform List<scalar> 
62
(
536.025
535.152
536.674
541.295
550.796
565.98
585.964
607.178
627.62
648.127
669.362
691.293
713.522
735.603
757.177
777.56
795.85
811.389
822.199
824.749
827.206
850.412
884.993
884.993
879.464
875.122
877.435
887.471
896.868
904.751
916.815
963.345
979.104
992.074
997.397
839.993
813.521
749.644
721.502
723.084
783.004
935.91
955.896
839.993
782.407
882.432
1029.85
1137.37
1185.39
1269.07
1344.86
1193.46
760.192
447.531
322.946
296.938
298.348
356.298
615.051
1076.39
1326.28
1221.24
)
;
    }
    atmosphere
    {
        type            prghTotalPressure;
        rho             rho;
        psi             none;
        gamma           1;
        p0              uniform 0;
        value           nonuniform List<scalar> 
46
(
5.72904
5.72904
5.72904
5.72904
5.72904
5.72904
5.72904
5.72904
5.72904
5.72904
5.72904
5.72904
5.72904
5.72904
5.72904
5.72904
5.72904
5.72904
5.72904
5.72904
5.72904
5.72904
5.72904
5.72904
5.72904
5.72904
5.72904
5.72904
5.72904
5.729
5.72829
5.72653
5.72382
5.71981
5.71454
5.70946
5.704
5.69693
5.68764
5.67668
5.66322
5.65424
5.62558
5.64559
5.50685
5.41667
)
;
        rho             rho;
    }
    defaultFaces
    {
        type            empty;
    }
}


// ************************************************************************* //
