/*--------------------------------*- C++ -*----------------------------------*\
  =========                 |
  \\      /  F ield         | OpenFOAM: The Open Source CFD Toolbox
   \\    /   O peration     | Website:  https://openfoam.org
    \\  /    A nd           | Version:  13
     \\/     M anipulation  |
\*---------------------------------------------------------------------------*/
FoamFile
{
    format      ascii;
    class       surfaceScalarField;
    location    "0.65";
    object      phi;
}
// * * * * * * * * * * * * * * * * * * * * * * * * * * * * * * * * * * * * * //

dimensions      [0 3 -1 0 0 0 0];

internalField   nonuniform List<scalar> 
4432
(
-3.223e-06
3.223e-06
-6.28009e-06
3.05709e-06
-7.6932e-06
1.41312e-06
-8.01867e-06
3.25462e-07
-7.31185e-06
-7.06816e-07
-5.22107e-06
-2.09078e-06
-1.91031e-06
-3.31076e-06
1.48395e-06
-3.39426e-06
3.91668e-06
-2.43273e-06
5.07248e-06
-1.1558e-06
5.07869e-06
-6.21775e-09
4.14164e-06
9.37056e-07
2.5733e-06
1.56833e-06
5.36204e-07
2.0371e-06
-2.00477e-06
2.54097e-06
-5.3457e-06
3.34093e-06
-9.15201e-06
3.8063e-06
-1.20417e-05
2.88966e-06
-1.49805e-05
2.93887e-06
-2.05294e-05
5.54886e-06
-2.36342e-05
3.10483e-06
-1.60756e-05
-7.55859e-06
-1.60756e-05
-3.92629e-06
7.14929e-06
-6.29213e-06
5.42293e-06
-7.16798e-06
2.28896e-06
-7.62356e-06
7.81037e-07
-7.29778e-06
-1.03259e-06
-5.46295e-06
-3.92561e-06
-2.14781e-06
-6.62591e-06
1.40533e-06
-6.9474e-06
3.96746e-06
-4.99487e-06
5.19103e-06
-2.37936e-06
5.42375e-06
-2.38948e-07
5.11299e-06
1.24782e-06
4.44862e-06
2.23269e-06
3.5379e-06
2.94783e-06
2.315e-06
3.76386e-06
4.9711e-07
5.15881e-06
-2.66136e-06
6.96478e-06
-7.6855e-06
7.91379e-06
-1.36862e-05
8.93957e-06
-1.82329e-05
1.00955e-05
-1.80099e-05
2.8819e-06
-1.1344e-05
-1.42245e-05
-2.74197e-05
-3.00016e-06
1.01495e-05
-4.79263e-06
7.2154e-06
-5.86163e-06
3.35797e-06
-6.83003e-06
1.74943e-06
-7.0486e-06
-8.1402e-07
-5.56472e-06
-5.40949e-06
-2.46806e-06
-9.72257e-06
9.96025e-07
-1.04115e-05
3.55031e-06
-7.54916e-06
4.74765e-06
-3.57669e-06
4.8515e-06
-3.42803e-07
4.33089e-06
1.76844e-06
3.57312e-06
2.99044e-06
2.8685e-06
3.65245e-06
2.41755e-06
4.2148e-06
2.27799e-06
5.29837e-06
1.98917e-06
7.2536e-06
2.64587e-07
9.63837e-06
-2.9441e-06
1.21483e-05
-6.28011e-06
1.34316e-05
-7.23855e-06
3.84033e-06
-4.2352e-06
-1.72278e-05
-3.16549e-05
-1.56035e-06
1.17098e-05
-2.56083e-06
8.21587e-06
-3.57031e-06
4.36745e-06
-4.48287e-06
2.66199e-06
-4.52667e-06
-7.70223e-07
-3.13826e-06
-6.7979e-06
-8.45612e-07
-1.20152e-05
1.47932e-06
-1.27364e-05
3.23598e-06
-9.30582e-06
4.07483e-06
-4.41554e-06
4.06355e-06
-3.31522e-07
3.49008e-06
2.34191e-06
2.67439e-06
3.80613e-06
1.94898e-06
4.37786e-06
1.55315e-06
4.61063e-06
1.65415e-06
5.19736e-06
2.52516e-06
6.3826e-06
3.68048e-06
8.48305e-06
4.82699e-06
1.10018e-05
5.75759e-06
1.2501e-05
4.76328e-06
4.83464e-06
3.16436e-06
-1.56289e-05
-2.84905e-05
3.41293e-07
1.13685e-05
7.34155e-07
7.82301e-06
5.36112e-07
4.56549e-06
6.88798e-07
2.5093e-06
1.74352e-06
-1.82494e-06
3.09124e-06
-8.14563e-06
3.83661e-06
-1.27606e-05
3.96618e-06
-1.2866e-05
3.74761e-06
-9.08725e-06
3.47459e-06
-4.14252e-06
3.09025e-06
5.28171e-08
2.49653e-06
2.93564e-06
1.7585e-06
4.54415e-06
1.1806e-06
4.95576e-06
9.6319e-07
4.82805e-06
1.09866e-06
5.06189e-06
1.88092e-06
5.60035e-06
3.72704e-06
6.63691e-06
6.95578e-06
7.77303e-06
1.0707e-05
8.74973e-06
1.13696e-05
4.17208e-06
7.26354e-06
-1.15229e-05
-2.1227e-05
2.76189e-06
8.60662e-06
5.1987e-06
5.3862e-06
6.88707e-06
2.87713e-06
8.98886e-06
4.07508e-07
1.13082e-05
-4.14431e-06
1.20355e-05
-8.87291e-06
1.06434e-05
-1.13685e-05
8.0213e-06
-1.02439e-05
5.31848e-06
-6.38444e-06
3.31958e-06
-2.14361e-06
2.19796e-06
1.17443e-06
1.4104e-06
3.7232e-06
7.37481e-07
5.21707e-06
3.69713e-07
5.32353e-06
4.58294e-07
4.73947e-06
8.21702e-07
4.69848e-06
1.54453e-06
4.87752e-06
3.04119e-06
5.14025e-06
5.83686e-06
4.97736e-06
9.94273e-06
4.64387e-06
1.18409e-05
2.27388e-06
8.34053e-06
-8.02248e-06
-1.28865e-05
4.71063e-06
3.89599e-06
1.01988e-05
-1.02008e-07
1.54066e-05
-2.33065e-06
1.99677e-05
-4.15357e-06
2.18679e-05
-6.04452e-06
2.01456e-05
-7.1506e-06
1.60092e-05
-7.23206e-06
1.13078e-05
-5.54246e-06
7.07743e-06
-2.1541e-06
3.76126e-06
1.17256e-06
1.72816e-06
3.20753e-06
4.56586e-07
4.99478e-06
-2.76127e-07
5.94978e-06
-4.7316e-07
5.52057e-06
-5.11541e-08
4.31747e-06
6.02911e-07
4.04441e-06
1.46017e-06
4.02027e-06
2.79654e-06
3.80388e-06
4.70544e-06
3.06846e-06
7.66447e-06
1.68486e-06
9.79224e-06
1.46101e-07
8.15693e-06
-6.38717e-06
-4.72953e-06
8.72013e-06
-4.82414e-06
1.81511e-05
-9.53299e-06
2.4356e-05
-8.53553e-06
2.69618e-05
-6.75943e-06
2.54499e-05
-4.53259e-06
2.0809e-05
-2.50968e-06
1.54462e-05
-1.86926e-06
1.08141e-05
-9.10351e-07
7.20737e-06
1.45261e-06
4.347e-06
4.03293e-06
2.19216e-06
5.36237e-06
3.51234e-07
6.83571e-06
-9.5522e-07
7.25623e-06
-1.32921e-06
5.89456e-06
-7.11775e-07
3.70003e-06
1.85347e-07
3.14728e-06
1.22186e-06
2.98376e-06
2.67725e-06
2.34849e-06
4.41684e-06
1.32887e-06
6.28683e-06
-1.85134e-07
7.53079e-06
-1.09786e-06
6.48789e-06
-5.34428e-06
1.75836e-06
-3.67014e-05
3.67014e-05
-4.8155e-05
1.14536e-05
-3.35632e-05
-1.45918e-05
-1.1065e-05
-2.24981e-05
9.3846e-06
-2.04496e-05
2.74594e-05
-1.80748e-05
4.7868e-05
-2.04085e-05
2.26915e-05
2.51764e-05
-5.07846e-05
7.34762e-05
-0.000114728
6.39432e-05
-0.000143245
2.85176e-05
-0.000152138
8.8927e-06
-0.000152053
-8.48077e-08
-0.000145778
-6.27515e-06
-0.000133246
-1.25319e-05
-0.000109447
-2.37995e-05
-6.12353e-05
-4.82115e-05
-2.59547e-06
-5.86398e-05
-2.59548e-06
-3.45791e-05
7.12805e-05
-3.37943e-05
1.06688e-05
-1.50931e-05
-3.3293e-05
3.24946e-06
-4.08407e-05
2.02394e-05
-3.74396e-05
3.58018e-05
-3.36373e-05
3.52674e-05
-1.98741e-05
-3.64409e-05
9.68847e-05
-0.000132799
0.000169834
-0.000181162
0.000112307
-0.000186764
3.41195e-05
-0.000182145
4.27369e-06
-0.00017655
-5.67958e-06
-0.000166787
-1.6038e-05
-0.000150737
-2.85827e-05
-0.000125963
-4.85726e-05
-8.06781e-05
-9.34969e-05
-2.14916e-05
-0.000117826
-2.40871e-05
-1.61821e-05
8.74626e-05
-1.0989e-05
5.47569e-06
4.0022e-06
-4.82842e-05
2.09348e-05
-5.77733e-05
3.42193e-05
-5.07241e-05
4.03466e-05
-3.97646e-05
1.67509e-05
3.72164e-06
-7.20635e-05
0.000185699
-0.00016081
0.000258581
-0.000214579
0.000166075
-0.00023274
5.22807e-05
-0.000227873
-5.93254e-07
-0.000218529
-1.50235e-05
-0.0002022
-3.23673e-05
-0.000175935
-5.48476e-05
-0.000143518
-8.09896e-05
-9.49689e-05
-0.000142046
-3.67573e-05
-0.000176038
-6.08444e-05
1.63933e-06
8.58233e-05
9.86307e-06
-2.74805e-06
2.13463e-05
-5.97675e-05
3.64233e-05
-7.28503e-05
4.51134e-05
-5.94142e-05
4.40393e-05
-3.86905e-05
1.62572e-05
3.15038e-05
-7.07306e-05
0.000272687
-0.000149513
0.000337364
-0.000193011
0.000209572
-0.000212738
7.20074e-05
-0.000226886
1.35548e-05
-0.000241333
-5.76649e-07
-0.000234416
-3.92838e-05
-0.000207457
-8.18067e-05
-0.000164991
-0.000123455
-0.000104654
-0.000202384
-4.53526e-05
-0.000235339
-0.000106197
1.89241e-05
6.68992e-05
2.46032e-05
-8.42716e-06
3.68319e-05
-7.19962e-05
4.99052e-05
-8.59235e-05
5.49441e-05
-6.4453e-05
5.03658e-05
-3.41122e-05
2.88442e-05
5.30254e-05
-8.88502e-07
0.00030242
-7.74488e-05
0.000413924
-0.000142143
0.000274266
-0.000158529
8.83933e-05
-0.000182327
3.73533e-05
-0.000206828
2.39238e-05
-0.00021857
-2.75411e-05
-0.000206686
-9.36911e-05
-0.00016454
-0.000165601
-0.000111356
-0.000255568
-4.7982e-05
-0.000298713
-0.000154179
2.1964e-05
4.49351e-05
3.59063e-05
-2.23695e-05
4.88118e-05
-8.49016e-05
5.91138e-05
-9.62256e-05
6.19636e-05
-6.73029e-05
5.65717e-05
-2.87203e-05
3.70395e-05
7.25576e-05
4.83042e-05
0.000291155
2.3102e-05
0.000439126
-5.61006e-05
0.000353469
-9.68758e-05
0.000129168
-0.000128456
6.89342e-05
-0.000164239
5.97061e-05
-0.000182693
-9.08765e-06
-0.000172592
-0.000103792
-0.000137094
-0.000201099
-0.000100094
-0.000292568
-4.36753e-05
-0.000355132
-0.000197854
2.22404e-05
2.26947e-05
4.48701e-05
-4.49991e-05
5.55491e-05
-9.55806e-05
6.24403e-05
-0.000103117
6.45506e-05
-6.94132e-05
5.90986e-05
-2.32682e-05
3.91753e-05
9.24809e-05
5.29455e-05
0.000277385
7.52434e-05
0.000416828
2.31914e-05
0.000405521
-5.07028e-05
0.000203063
-9.31812e-05
0.000111413
-0.000135937
0.000102462
-0.000153142
8.11739e-06
-0.000135747
-0.000121187
-0.000100308
-0.000236538
-6.6984e-05
-0.000325891
-3.54437e-05
-0.000386672
-0.000233298
3.06831e-05
-7.98844e-06
5.05086e-05
-6.48246e-05
5.59599e-05
-0.000101032
6.14467e-05
-0.000108604
6.32054e-05
-7.11719e-05
5.72118e-05
-1.72747e-05
4.53549e-05
0.000104338
5.69753e-05
0.000265764
8.93353e-05
0.000384468
7.57168e-05
0.000419139
-1.87293e-06
0.000280652
-6.86116e-05
0.000178151
-0.000112699
0.000146551
-0.000125206
2.06239e-05
-0.000107015
-0.000139378
-7.27217e-05
-0.000270832
-3.87634e-05
-0.00035985
-2.60117e-05
-0.000399424
-0.00025931
1.71e-05
-2.19242e-05
2.05368e-05
-1.29697e-05
1.26326e-05
-6.31308e-07
7.9291e-06
-2.05596e-06
5.61679e-06
-2.22028e-06
4.27338e-06
-1.16626e-06
3.86608e-06
-1.46196e-06
3.4874e-06
-5.3167e-07
3.38957e-06
1.55044e-06
3.73288e-06
3.68962e-06
3.49187e-06
5.60338e-06
1.50949e-06
8.81809e-06
-1.27814e-06
1.00439e-05
-2.10665e-06
6.72307e-06
-3.84691e-07
1.97808e-06
1.23638e-06
1.52621e-06
2.54223e-06
1.67791e-06
4.84394e-06
4.67805e-08
8.524e-06
-2.35119e-06
1.24067e-05
-4.06783e-06
1.62485e-05
-4.93966e-06
1.9001e-05
-8.09674e-06
-6.27785e-06
2.70372e-05
-7.28788e-05
5.09546e-05
-0.000130419
4.457e-05
-0.000124807
-6.24295e-06
-8.98256e-05
-3.70374e-05
-6.96042e-05
-2.24417e-05
-6.36276e-05
-7.14289e-06
-6.19452e-05
-3.14432e-06
-5.5503e-05
-6.97388e-06
-4.38062e-05
-1.01464e-05
-3.1908e-05
-8.20858e-06
-2.0476e-05
-5.82865e-06
-1.15439e-05
-1.14046e-07
-5.08445e-06
3.58446e-06
6.44157e-07
9.94462e-07
4.31829e-06
-1.69606e-06
5.07899e-06
7.65516e-07
4.69367e-06
2.06323e-06
6.23397e-06
-1.49352e-06
1.0146e-05
-6.26317e-06
1.34486e-05
-7.37047e-06
1.48336e-05
-6.32467e-06
1.33172e-05
-6.58031e-06
-8.32652e-06
1.53658e-05
-2.88874e-05
7.98419e-05
-6.96132e-05
8.52956e-05
-9.82192e-05
2.2363e-05
-0.000130678
-4.5784e-06
-0.000162499
9.37882e-06
-0.000188756
1.91143e-05
-0.000205614
1.37135e-05
-0.000207715
-4.87283e-06
-0.000192935
-2.4926e-05
-0.000165108
-3.60357e-05
-0.000137273
-3.36635e-05
-9.19805e-05
-4.54067e-05
-6.46562e-05
-2.37399e-05
-4.75184e-05
-1.61433e-05
-3.13446e-05
-1.78698e-05
-1.5356e-05
-1.52231e-05
-4.20731e-06
-9.08545e-06
4.5662e-06
-1.0267e-05
1.32536e-05
-1.49506e-05
1.92428e-05
-1.33597e-05
2.09156e-05
-7.99745e-06
1.70459e-05
-2.7106e-06
-1.41914e-06
1.01385e-05
5.68353e-06
7.41583e-05
-5.84807e-06
9.68271e-05
-3.2701e-05
4.92158e-05
-6.23218e-05
2.50422e-05
-8.1513e-05
2.85699e-05
-9.54326e-05
3.30339e-05
-0.000102144
2.04245e-05
-0.000110804
3.78733e-06
-0.000128292
-7.43768e-06
-0.000154855
-9.47277e-06
-0.000175067
-1.34517e-05
-0.000196104
-2.43688e-05
-0.000198926
-2.09181e-05
-0.000191073
-2.39959e-05
-0.000171695
-3.72485e-05
-0.000144963
-4.19544e-05
-0.000105946
-4.81033e-05
-8.77727e-05
-2.844e-05
-6.51581e-05
-3.75651e-05
-4.34364e-05
-3.50814e-05
-3.07267e-05
-2.07071e-05
-4.01865e-05
6.74911e-06
2.10541e-05
-6.26597e-05
8.81134e-06
6.53469e-05
2.06878e-05
8.49506e-05
6.74306e-06
6.31604e-05
9.35899e-08
3.16916e-05
-5.07769e-06
3.37411e-05
-9.47997e-06
3.74361e-05
-7.51691e-06
1.84615e-05
-6.65891e-06
2.92942e-06
-1.17478e-05
-2.3487e-06
-2.42277e-05
3.00734e-06
-5.10712e-05
1.33919e-05
-8.18847e-05
6.4449e-06
-0.000102213
-5.89819e-07
-0.000122468
-3.74052e-06
-0.000147649
-1.20684e-05
-0.000177385
-1.22186e-05
-0.000215746
-9.74187e-06
-0.000238093
-6.09254e-06
-0.000252636
-2.30222e-05
-0.000243952
-4.37653e-05
-0.000217737
-4.69223e-05
-0.000196386
-1.46018e-05
1.2487e-05
-0.000187819
1.02521e-06
6.43216e-05
2.01138e-05
6.5862e-05
2.33664e-05
5.99078e-05
1.62403e-05
3.88176e-05
1.26823e-05
3.7299e-05
1.14841e-05
3.86343e-05
2.40395e-06
2.75416e-05
-1.19889e-05
1.73223e-05
-2.29552e-05
8.61766e-06
-2.44466e-05
4.49892e-06
-1.96618e-05
8.60712e-06
-2.43075e-05
1.10908e-05
-4.13419e-05
1.64445e-05
-6.01584e-05
1.5076e-05
-7.46743e-05
2.44746e-06
-9.27692e-05
5.87631e-06
-0.000117619
1.51074e-05
-0.000145681
2.19696e-05
-0.000190192
2.1489e-05
-0.00024556
1.16024e-05
-0.00028975
-2.73182e-06
-0.000299817
-4.53458e-06
-8.04716e-07
-0.000286526
-4.90566e-07
6.48122e-05
1.26639e-05
5.27075e-05
1.83294e-05
5.42422e-05
1.26699e-05
4.4477e-05
7.86032e-06
4.21086e-05
6.40499e-06
4.00896e-05
1.7e-07
3.37766e-05
-9.82246e-06
2.73148e-05
-2.22826e-05
2.10779e-05
-3.48039e-05
1.70203e-05
-4.08551e-05
1.46583e-05
-4.58539e-05
1.60895e-05
-5.32083e-05
2.37988e-05
-6.42013e-05
2.6069e-05
-7.77713e-05
1.60174e-05
-8.76924e-05
1.57975e-05
-9.59226e-05
2.33377e-05
-0.000106807
3.28536e-05
-0.000127732
4.2414e-05
-0.000162482
4.63524e-05
-0.000206859
4.16448e-05
-0.000242522
3.11293e-05
2.24171e-05
-0.000265744
2.11804e-07
6.46004e-05
6.07511e-06
4.68441e-05
8.62998e-06
5.16872e-05
5.80323e-06
4.73036e-05
2.82171e-06
4.509e-05
2.39717e-07
4.26715e-05
-5.26785e-06
3.92842e-05
-1.36125e-05
3.56595e-05
-2.35858e-05
3.10512e-05
-3.27722e-05
2.62068e-05
-4.11061e-05
2.29922e-05
-4.84758e-05
2.34592e-05
-5.33491e-05
2.8672e-05
-5.87308e-05
3.14506e-05
-7.04796e-05
2.77661e-05
-8.41802e-05
2.94982e-05
-9.64355e-05
3.55932e-05
-0.000106643
4.30612e-05
-0.000115226
5.0997e-05
-0.00012312
5.42466e-05
-0.000131442
4.99662e-05
-0.000146007
4.5694e-05
4.89261e-05
-0.000172516
-4.0517e-07
6.50055e-05
1.81035e-06
4.46285e-05
3.01394e-06
5.04835e-05
1.49279e-06
4.88246e-05
-6.58528e-07
4.72412e-05
-3.17343e-06
4.51863e-05
-7.33e-06
4.34407e-05
-1.30047e-05
4.13341e-05
-2.03267e-05
3.83732e-05
-2.91922e-05
3.50723e-05
-3.86725e-05
3.24724e-05
-4.67268e-05
3.15135e-05
-5.15955e-05
3.35407e-05
-5.5999e-05
3.58541e-05
-6.47231e-05
3.64902e-05
-7.56969e-05
4.0472e-05
-8.61936e-05
4.60899e-05
-9.45554e-05
5.14231e-05
-9.97273e-05
5.61688e-05
-0.000103238
5.77569e-05
-0.000107345
5.40736e-05
-0.000113546
5.18953e-05
6.66403e-05
-0.00013126
-1.20795e-06
6.62134e-05
-4.27654e-07
4.38481e-05
2.02774e-07
4.9853e-05
-9.11701e-07
4.99389e-05
-2.69574e-06
4.90251e-05
-4.91344e-06
4.7404e-05
-7.86527e-06
4.63924e-05
-1.18462e-05
4.5315e-05
-1.73104e-05
4.38374e-05
-2.41583e-05
4.19202e-05
-3.17203e-05
4.00343e-05
-3.93209e-05
3.9114e-05
-4.59301e-05
4.01499e-05
-5.24337e-05
4.23577e-05
-6.10385e-05
4.50951e-05
-7.02883e-05
4.97218e-05
-7.88472e-05
5.46488e-05
-8.60145e-05
5.85904e-05
-9.15071e-05
6.16614e-05
-9.69323e-05
6.3182e-05
-0.00010558
6.27212e-05
-0.00012281
6.91252e-05
0.000108305
-0.000164475
-1.50578e-06
6.77191e-05
-1.50727e-06
4.38495e-05
-1.37208e-06
4.97176e-05
-2.48451e-06
5.10513e-05
-4.00566e-06
5.05462e-05
-6.02985e-06
4.94281e-05
-8.47603e-06
4.88385e-05
-1.15569e-05
4.83959e-05
-1.55349e-05
4.78154e-05
-2.05238e-05
4.69091e-05
-2.65215e-05
4.60319e-05
-3.33365e-05
4.59289e-05
-4.0417e-05
4.72304e-05
-4.78528e-05
4.97935e-05
-5.61485e-05
5.33909e-05
-6.46292e-05
5.82025e-05
-7.29206e-05
6.29401e-05
-8.09436e-05
6.66134e-05
-8.88731e-05
6.95909e-05
-9.87992e-05
7.31082e-05
-0.00011644
8.03619e-05
-0.000150628
0.000103313
0.000164403
-0.000206726
-1.5034e-06
6.92225e-05
-1.99232e-06
4.43383e-05
-2.32664e-06
5.00519e-05
-3.45094e-06
5.21755e-05
-4.90063e-06
5.19958e-05
-6.806e-06
5.13334e-05
-9.02183e-06
5.10543e-05
-1.16179e-05
5.09918e-05
-1.48004e-05
5.09978e-05
-1.88576e-05
5.09662e-05
-2.39481e-05
5.11223e-05
-2.99615e-05
5.19422e-05
-3.65923e-05
5.38612e-05
-4.36798e-05
5.6881e-05
-5.11803e-05
6.08914e-05
-5.88679e-05
6.58902e-05
-6.69833e-05
7.10556e-05
-7.58387e-05
7.5469e-05
-8.59453e-05
7.96975e-05
-0.000100154
8.73169e-05
-0.000124307
0.000104515
-0.000162879
0.000141885
0.000207071
-0.000205546
-1.37999e-06
7.06024e-05
-2.15166e-06
4.511e-05
-2.8043e-06
5.07045e-05
-3.9553e-06
5.33265e-05
-5.37992e-06
5.34204e-05
-7.17842e-06
5.31319e-05
-9.26541e-06
5.31412e-05
-1.16665e-05
5.33929e-05
-1.45222e-05
5.38535e-05
-1.80656e-05
5.45096e-05
-2.24459e-05
5.55025e-05
-2.76266e-05
5.71229e-05
-3.34048e-05
5.96395e-05
-3.9617e-05
6.30932e-05
-4.61885e-05
6.74628e-05
-5.31023e-05
7.2804e-05
-6.08168e-05
7.87701e-05
-7.00001e-05
8.46523e-05
-8.12601e-05
9.09575e-05
-9.63671e-05
0.000102424
-0.000119363
0.000127511
-0.000151393
0.000173915
0.000237104
-0.000181427
-1.20522e-06
7.18076e-05
-2.11867e-06
4.60234e-05
-2.96913e-06
5.1555e-05
-4.11557e-06
5.4473e-05
-5.48373e-06
5.47885e-05
-7.1581e-06
5.48062e-05
-9.11578e-06
5.50989e-05
-1.13727e-05
5.56497e-05
-1.39986e-05
5.64793e-05
-1.71247e-05
5.76356e-05
-2.08538e-05
5.92316e-05
-2.51745e-05
6.14435e-05
-2.99681e-05
6.44332e-05
-3.51549e-05
6.828e-05
-4.07412e-05
7.3049e-05
-4.68032e-05
7.8866e-05
-5.3754e-05
8.57208e-05
-6.24308e-05
9.33291e-05
-7.35115e-05
0.000102038
-8.69408e-05
0.000115853
-0.000103258
0.000143828
-0.000123067
0.000193724
0.000258406
-0.000144369
-1.02545e-06
7.28331e-05
-1.98134e-06
4.69794e-05
-2.91654e-06
5.24903e-05
-4.02121e-06
5.55778e-05
-5.29431e-06
5.60617e-05
-6.80688e-06
5.63187e-05
-8.56827e-06
5.68603e-05
-1.05987e-05
5.76802e-05
-1.29281e-05
5.88086e-05
-1.56127e-05
6.03202e-05
-1.8698e-05
6.23168e-05
-2.21724e-05
6.49179e-05
-2.59845e-05
6.82453e-05
-3.01158e-05
7.24115e-05
-3.46147e-05
7.75479e-05
-3.9568e-05
8.38193e-05
-4.5235e-05
9.13877e-05
-5.23069e-05
0.000100401
-6.15125e-05
0.000111244
-7.1896e-05
0.000126237
-8.05951e-05
0.000152527
-8.63668e-05
0.000199496
0.000265622
-9.35824e-05
-8.58387e-07
7.36915e-05
-1.7825e-06
4.79037e-05
-2.71696e-06
5.34249e-05
-3.73749e-06
5.65984e-05
-4.87863e-06
5.7203e-05
-6.19531e-06
5.76355e-05
-7.70648e-06
5.83714e-05
-9.4291e-06
5.94029e-05
-1.13785e-05
6.07579e-05
-1.35675e-05
6.25093e-05
-1.6002e-05
6.47514e-05
-1.86667e-05
6.75826e-05
-2.15352e-05
7.11138e-05
-2.45978e-05
7.5474e-05
-2.7875e-05
8.08253e-05
-3.14083e-05
8.73527e-05
-3.5296e-05
9.52753e-05
-3.98519e-05
0.000104957
-4.55754e-05
0.000116967
-5.17672e-05
0.000132429
-5.43993e-05
0.000155159
-4.81239e-05
0.000193221
0.00025144
-3.39418e-05
-7.0588e-07
7.43974e-05
-1.54962e-06
4.87475e-05
-2.41882e-06
5.42943e-05
-3.31757e-06
5.74972e-05
-4.29579e-06
5.81812e-05
-5.39587e-06
5.87357e-05
-6.63087e-06
5.96065e-05
-8.0089e-06
6.07811e-05
-9.53395e-06
6.2283e-05
-1.12019e-05
6.41772e-05
-1.29962e-05
6.65457e-05
-1.48929e-05
6.94793e-05
-1.68598e-05
7.30806e-05
-1.88607e-05
7.74749e-05
-2.08575e-05
8.2822e-05
-2.28118e-05
8.93068e-05
-2.4681e-05
9.71445e-05
-2.64067e-05
0.000106683
-2.79596e-05
0.00011852
-2.88965e-05
0.000133366
-2.6326e-05
0.000152589
-1.31515e-05
0.000180047
0.000220512
1.77765e-05
-5.62913e-07
7.49605e-05
-1.29612e-06
4.94808e-05
-2.05493e-06
5.50531e-05
-2.80475e-06
5.82472e-05
-3.59854e-06
5.89751e-05
-4.4701e-06
5.96073e-05
-5.42193e-06
6.05584e-05
-6.45229e-06
6.18113e-05
-7.5531e-06
6.33838e-05
-8.7096e-06
6.53338e-05
-9.89525e-06
6.77315e-05
-1.10714e-05
7.06556e-05
-1.21873e-05
7.41963e-05
-1.31755e-05
7.8463e-05
-1.3944e-05
8.35905e-05
-1.43736e-05
8.97365e-05
-1.43071e-05
9.70779e-05
-1.34662e-05
0.000105842
-1.14116e-05
0.000116466
-7.35484e-06
0.000129309
2.36487e-07
0.000144997
1.62885e-05
0.000163995
0.000188188
4.86126e-05
-4.22648e-07
7.53832e-05
-1.02973e-06
5.00881e-05
-1.65102e-06
5.56745e-05
-2.23413e-06
5.88303e-05
-2.83138e-06
5.95725e-05
-3.46901e-06
6.02449e-05
-4.14072e-06
6.12302e-05
-4.83557e-06
6.25063e-05
-5.53493e-06
6.40834e-05
-6.21426e-06
6.60131e-05
-6.83656e-06
6.83535e-05
-7.35044e-06
7.11694e-05
-7.68812e-06
7.45341e-05
-7.75723e-06
7.85322e-05
-7.43158e-06
8.32649e-05
-6.53566e-06
8.88406e-05
-4.8474e-06
9.53897e-05
-1.96091e-06
0.000102955
2.75017e-06
0.000111755
9.88594e-06
0.000122173
2.07956e-05
0.000134087
3.74808e-05
0.000147309
0.0001609
6.47687e-05
-2.80792e-07
7.5664e-05
-7.56728e-07
5.05641e-05
-1.22688e-06
5.61447e-05
-1.63438e-06
5.92379e-05
-2.03196e-06
5.99701e-05
-2.43728e-06
6.06503e-05
-2.83939e-06
6.16323e-05
-3.21665e-06
6.28834e-05
-3.54596e-06
6.44126e-05
-3.79157e-06
6.62587e-05
-3.90798e-06
6.847e-05
-3.83373e-06
7.10951e-05
-3.48992e-06
7.41902e-05
-2.76921e-06
7.78116e-05
-1.53123e-06
8.20268e-05
4.44422e-07
8.68649e-05
3.40532e-06
9.24288e-05
7.60172e-06
9.87589e-05
1.35639e-05
0.000105793
2.2176e-05
0.000113561
3.43562e-05
0.000121907
5.12047e-05
0.000130461
0.000138118
7.39869e-05
-1.3532e-07
7.57994e-05
-4.82441e-07
5.09112e-05
-7.9814e-07
5.64605e-05
-1.02973e-06
5.94696e-05
-1.23139e-06
6.01718e-05
-1.415e-06
6.0834e-05
-1.56207e-06
6.17794e-05
-1.64796e-06
6.29695e-05
-1.64034e-06
6.4405e-05
-1.50193e-06
6.61202e-05
-1.17783e-06
6.81458e-05
-5.98593e-07
7.05158e-05
3.22424e-07
7.32692e-05
1.69171e-06
7.64425e-05
3.65807e-06
8.00606e-05
6.34526e-06
8.41778e-05
1.00541e-05
8.872e-05
1.50675e-05
9.37456e-05
2.17903e-05
9.90699e-05
3.07694e-05
0.000104582
4.26916e-05
0.000109985
5.82832e-05
0.000114869
0.000118466
7.79353e-05
2.12532e-08
7.57782e-05
-2.14302e-07
5.11469e-05
-3.76548e-07
5.66228e-05
-4.39684e-07
5.95329e-05
-4.55349e-07
6.01876e-05
-4.33045e-07
6.08118e-05
-3.4647e-07
6.16929e-05
-1.70484e-07
6.27935e-05
1.38146e-07
6.40964e-05
6.1926e-07
6.5639e-05
1.32177e-06
6.74433e-05
2.30639e-06
6.95312e-05
3.65858e-06
7.19171e-05
5.48961e-06
7.46116e-05
7.92993e-06
7.76203e-05
1.11613e-05
8.09464e-05
1.53465e-05
8.45349e-05
2.07733e-05
8.83187e-05
2.76837e-05
9.21595e-05
3.64425e-05
9.58229e-05
4.74354e-05
9.89919e-05
6.10611e-05
0.000101243
0.000102045
7.74819e-05
1.79796e-07
7.55984e-05
4.9631e-08
5.12772e-05
3.05686e-08
5.66421e-05
1.2516e-07
5.94384e-05
2.78899e-07
6.0034e-05
4.89674e-07
6.06011e-05
7.82592e-07
6.14001e-05
1.1938e-06
6.23824e-05
1.74483e-06
6.35455e-05
2.48865e-06
6.48952e-05
3.47939e-06
6.64526e-05
4.78453e-06
6.82262e-05
6.47976e-06
7.0222e-05
8.65885e-06
7.24325e-05
1.1437e-05
7.48422e-05
1.49619e-05
7.74214e-05
1.93698e-05
8.01269e-05
2.48697e-05
8.28188e-05
3.1646e-05
8.53832e-05
3.99006e-05
8.75681e-05
4.97933e-05
8.9099e-05
6.14618e-05
8.95744e-05
8.86164e-05
7.48899e-05
3.34966e-07
7.52635e-05
2.93799e-07
5.13185e-05
4.09853e-07
5.65263e-05
6.47879e-07
5.92005e-05
9.51418e-07
5.97306e-05
1.32488e-06
6.02276e-05
1.79339e-06
6.09317e-05
2.39079e-06
6.17851e-05
3.15261e-06
6.27837e-05
4.11896e-06
6.39289e-05
5.34152e-06
6.52301e-05
6.88448e-06
6.66832e-05
8.81394e-06
6.82926e-05
1.12136e-05
7.00329e-05
1.41777e-05
7.18779e-05
1.78255e-05
7.37736e-05
2.22834e-05
7.56689e-05
2.76558e-05
7.74464e-05
3.40899e-05
7.8949e-05
4.16834e-05
7.99746e-05
5.05015e-05
8.02807e-05
6.05129e-05
7.9563e-05
7.75339e-05
7.15953e-05
4.82698e-07
7.4781e-05
5.21373e-07
5.12801e-05
7.64518e-07
5.62833e-05
1.12509e-06
5.88402e-05
1.56029e-06
5.92953e-05
2.06882e-06
5.97192e-05
2.68676e-06
6.03137e-05
3.43736e-06
6.10346e-05
4.36186e-06
6.18592e-05
5.49881e-06
6.27919e-05
6.8955e-06
6.38335e-05
8.59626e-06
6.49826e-05
1.06731e-05
6.62158e-05
1.31942e-05
6.75118e-05
1.62403e-05
6.88317e-05
1.98847e-05
7.01291e-05
2.4228e-05
7.13256e-05
2.93572e-05
7.2317e-05
3.53443e-05
7.29619e-05
4.22346e-05
7.30842e-05
5.00313e-05
7.2484e-05
5.86606e-05
7.09336e-05
6.82276e-05
6.79668e-05
6.20719e-07
7.41604e-05
7.34851e-07
5.11662e-05
1.09392e-06
5.59243e-05
1.55945e-06
5.83748e-05
2.09991e-06
5.87548e-05
2.72569e-06
5.90935e-05
3.45697e-06
5.95825e-05
4.33165e-06
6.016e-05
5.37414e-06
6.08168e-05
6.62737e-06
6.15388e-05
8.13033e-06
6.23305e-05
9.93391e-06
6.31789e-05
1.2087e-05
6.40626e-05
1.4645e-05
6.49535e-05
1.76689e-05
6.58077e-05
2.12266e-05
6.65713e-05
2.53821e-05
6.71702e-05
3.01861e-05
6.75131e-05
3.56745e-05
6.74735e-05
4.18622e-05
6.68963e-05
4.87258e-05
6.56203e-05
5.61787e-05
6.34807e-05
6.0339e-05
6.40671e-05
7.52516e-07
7.34079e-05
9.27735e-07
5.09911e-05
1.38611e-06
5.54661e-05
1.9352e-06
5.78257e-05
2.56858e-06
5.81214e-05
3.28247e-06
5.83796e-05
4.10679e-06
5.87583e-05
5.06841e-06
5.91985e-05
6.19933e-06
5.9686e-05
7.525e-06
6.02131e-05
9.0894e-06
6.0766e-05
1.09319e-05
6.13363e-05
1.30953e-05
6.18991e-05
1.56258e-05
6.2423e-05
1.85694e-05
6.2864e-05
2.19721e-05
6.31686e-05
2.58742e-05
6.32682e-05
3.03121e-05
6.30753e-05
3.52934e-05
6.24922e-05
4.0807e-05
6.13826e-05
4.6817e-05
5.96103e-05
5.3245e-05
5.70527e-05
5.36284e-05
5.99555e-05
8.85435e-07
7.25226e-05
1.09717e-06
5.07794e-05
1.63661e-06
5.49268e-05
2.26109e-06
5.72011e-05
2.96701e-06
5.74155e-05
3.74983e-06
5.75968e-05
4.64253e-06
5.78656e-05
5.66309e-06
5.81778e-05
6.84329e-06
5.85057e-05
8.21066e-06
5.88457e-05
9.79747e-06
5.91791e-05
1.16372e-05
5.94965e-05
1.37654e-05
5.97709e-05
1.62186e-05
5.99698e-05
1.90305e-05
6.00521e-05
2.22327e-05
5.99665e-05
2.5852e-05
5.9649e-05
2.98973e-05
5.903e-05
3.43707e-05
5.80187e-05
3.92489e-05
5.65044e-05
4.44886e-05
5.43705e-05
5.00148e-05
5.15264e-05
4.79292e-05
5.57139e-05
1.03189e-06
7.14907e-05
1.24482e-06
5.05666e-05
1.83887e-06
5.43329e-05
2.52515e-06
5.65148e-05
3.28863e-06
5.6652e-05
4.12169e-06
5.67637e-05
5.05925e-06
5.6928e-05
6.12002e-06
5.71169e-05
7.32864e-06
5.72971e-05
8.71102e-06
5.74633e-05
1.02888e-05
5.76014e-05
1.20949e-05
5.76905e-05
1.41556e-05
5.77103e-05
1.64999e-05
5.76255e-05
1.91504e-05
5.74016e-05
2.21275e-05
5.69894e-05
2.54431e-05
5.63335e-05
2.91041e-05
5.53689e-05
3.30957e-05
5.40271e-05
3.73858e-05
5.22143e-05
4.19243e-05
4.9832e-05
4.66499e-05
4.68007e-05
4.31105e-05
5.14685e-05
1.1916e-06
7.02992e-05
1.37555e-06
5.03827e-05
1.99413e-06
5.37145e-05
2.72442e-06
5.57845e-05
3.52577e-06
5.58506e-05
4.39489e-06
5.58945e-05
5.35971e-06
5.59631e-05
6.4407e-06
5.60359e-05
7.6561e-06
5.60817e-05
9.02962e-06
5.60898e-05
1.05831e-05
5.6048e-05
1.23377e-05
5.5936e-05
1.43154e-05
5.57326e-05
1.65335e-05
5.54074e-05
1.90106e-05
5.49245e-05
2.17596e-05
5.42404e-05
2.47845e-05
5.33086e-05
2.8078e-05
5.20755e-05
3.16236e-05
5.04815e-05
3.53846e-05
4.84533e-05
3.93117e-05
4.59049e-05
4.33419e-05
4.27703e-05
3.90502e-05
4.74022e-05
1.34821e-06
6.8951e-05
1.49029e-06
5.02407e-05
2.10097e-06
5.31039e-05
2.85454e-06
5.50309e-05
3.67426e-06
5.50307e-05
4.55611e-06
5.50125e-05
5.52793e-06
5.49911e-05
6.60828e-06
5.49555e-05
7.81389e-06
5.48762e-05
9.16359e-06
5.47402e-05
1.06745e-05
5.45372e-05
1.2363e-05
5.42476e-05
1.42463e-05
5.38492e-05
1.63371e-05
5.33165e-05
1.8647e-05
5.26146e-05
2.11791e-05
5.17082e-05
2.39329e-05
5.05548e-05
2.68984e-05
4.911e-05
3.00576e-05
4.73224e-05
3.33719e-05
4.51388e-05
3.6789e-05
4.24877e-05
4.02495e-05
3.93098e-05
3.56058e-05
4.36938e-05
1.49318e-06
6.74579e-05
1.58349e-06
5.01505e-05
2.15267e-06
5.25348e-05
2.90385e-06
5.42796e-05
3.71721e-06
5.42172e-05
4.58695e-06
5.41427e-05
5.54288e-06
5.40351e-05
6.59909e-06
5.38994e-05
7.77222e-06
5.37031e-05
9.07674e-06
5.34357e-05
1.05271e-05
5.3087e-05
1.21352e-05
5.26394e-05
1.39137e-05
5.20707e-05
1.58715e-05
5.13586e-05
1.80145e-05
5.04716e-05
2.03442e-05
4.93785e-05
2.28567e-05
4.80423e-05
2.554e-05
4.64267e-05
2.83729e-05
4.44894e-05
3.13218e-05
4.21897e-05
3.43401e-05
3.94693e-05
3.73697e-05
3.62801e-05
3.26186e-05
4.03568e-05
1.62689e-06
6.58309e-05
1.64851e-06
5.01289e-05
2.14231e-06
5.20409e-05
2.86324e-06
5.35588e-05
3.64099e-06
5.34395e-05
4.47017e-06
5.33136e-05
5.38033e-06
5.3125e-05
6.38336e-06
5.28965e-05
7.4947e-06
5.25918e-05
8.72589e-06
5.22045e-05
1.00887e-05
5.17242e-05
1.1593e-05
5.11352e-05
1.32451e-05
5.04186e-05
1.50546e-05
4.95491e-05
1.70239e-05
4.85023e-05
1.91532e-05
4.72491e-05
2.14351e-05
4.57602e-05
2.38601e-05
4.40015e-05
2.64087e-05
4.19406e-05
2.9054e-05
3.95442e-05
3.17535e-05
3.67698e-05
3.44585e-05
3.35752e-05
2.99578e-05
3.71193e-05
1.74528e-06
6.40856e-05
1.68432e-06
5.019e-05
2.07229e-06
5.16529e-05
2.73141e-06
5.28997e-05
3.44009e-06
5.27308e-05
4.19736e-06
5.25563e-05
5.02957e-06
5.22928e-05
5.94757e-06
5.19785e-05
6.96478e-06
5.15746e-05
8.08919e-06
5.10801e-05
9.32944e-06
5.0484e-05
1.06943e-05
4.97704e-05
1.21903e-05
4.89225e-05
1.38228e-05
4.79165e-05
1.55928e-05
4.6732e-05
1.74995e-05
4.53422e-05
1.95394e-05
4.37201e-05
2.17017e-05
4.1839e-05
2.39696e-05
3.96727e-05
2.63231e-05
3.71907e-05
2.87292e-05
3.43638e-05
3.11472e-05
3.11572e-05
2.75713e-05
3.35338e-05
1.83248e-06
6.22531e-05
1.68878e-06
5.03337e-05
1.95208e-06
5.13898e-05
2.51768e-06
5.23342e-05
3.12657e-06
5.21219e-05
3.78406e-06
5.18987e-05
4.50996e-06
5.15669e-05
5.31261e-06
5.11759e-05
6.20313e-06
5.06842e-05
7.18794e-06
5.00955e-05
8.27384e-06
4.93982e-05
9.46722e-06
4.8577e-05
1.07728e-05
4.76169e-05
1.2193e-05
4.64962e-05
1.37315e-05
4.51933e-05
1.53872e-05
4.36864e-05
1.7155e-05
4.19521e-05
1.9025e-05
3.99689e-05
2.09864e-05
3.77112e-05
2.30216e-05
3.51555e-05
2.51061e-05
3.22792e-05
2.72096e-05
2.90537e-05
2.54884e-05
2.92925e-05
1.86426e-06
6.0389e-05
1.65349e-06
5.05446e-05
1.79225e-06
5.12513e-05
2.24281e-06
5.18836e-05
2.73087e-06
5.16338e-05
3.27067e-06
5.13589e-05
3.86993e-06
5.09676e-05
4.53912e-06
5.05067e-05
5.28325e-06
4.99402e-05
6.10703e-06
4.92718e-05
7.01599e-06
4.84893e-05
8.01413e-06
4.75789e-05
9.10579e-06
4.65251e-05
1.02939e-05
4.5308e-05
1.15791e-05
4.3908e-05
1.29609e-05
4.23046e-05
1.44334e-05
4.04795e-05
1.59886e-05
3.84135e-05
1.76167e-05
3.6083e-05
1.93047e-05
3.34674e-05
2.10304e-05
3.05535e-05
2.27735e-05
2.73107e-05
2.37657e-05
2.44964e-05
1.82663e-06
5.85624e-05
1.56992e-06
5.08014e-05
1.59826e-06
5.1223e-05
1.9307e-06
5.15512e-05
2.29089e-06
5.12736e-05
2.70779e-06
5.0942e-05
3.17771e-06
5.04977e-05
3.70561e-06
4.99788e-05
4.29635e-06
4.93495e-05
4.95355e-06
4.86147e-05
5.68082e-06
4.77621e-05
6.48113e-06
4.67786e-05
7.35783e-06
4.56485e-05
8.31205e-06
4.43539e-05
9.34417e-06
4.28758e-05
1.04521e-05
4.11966e-05
1.16305e-05
3.9301e-05
1.28726e-05
3.71714e-05
1.41706e-05
3.4785e-05
1.55089e-05
3.21292e-05
1.68739e-05
2.91887e-05
1.82472e-05
2.59376e-05
2.24211e-05
1.95918e-05
1.72004e-06
5.68424e-05
1.43782e-06
5.10838e-05
1.37668e-06
5.12842e-05
1.60072e-06
5.13272e-05
1.8413e-06
5.10331e-05
2.14462e-06
5.06388e-05
2.48759e-06
5.01547e-05
2.8829e-06
4.95836e-05
3.32962e-06
4.89029e-05
3.82859e-06
4.81157e-05
4.38436e-06
4.72064e-05
4.99884e-06
4.61643e-05
5.67438e-06
4.49731e-05
6.41069e-06
4.36176e-05
7.20896e-06
4.20775e-05
8.06605e-06
4.03395e-05
8.97655e-06
3.83905e-05
9.93326e-06
3.62147e-05
1.09287e-05
3.37895e-05
1.19504e-05
3.11074e-05
1.29883e-05
2.81508e-05
1.40201e-05
2.49057e-05