/*--------------------------------*- C++ -*----------------------------------*\
  =========                 |
  \\      /  F ield         | OpenFOAM: The Open Source CFD Toolbox
   \\    /   O peration     | Website:  https://openfoam.org
    \\  /    A nd           | Version:  13
     \\/     M anipulation  |
\*---------------------------------------------------------------------------*/
FoamFile
{
    format      ascii;
    class       volScalarField;
    location    "0.65";
    object      rho;
}
// * * * * * * * * * * * * * * * * * * * * * * * * * * * * * * * * * * * * * //

dimensions      [1 -3 0 0 0 0 0];

internalField   nonuniform List<scalar> 
2268
(
1000
1000
1000
1000
1000
1000
1000
1000
1000
1000
1000
1000
1000
1000
1000
1000
999.998
985.154
940.209
951.209
998.523
998.531
998.52
1000
1000
1000
1000
1000
1000
1000
1000
1000
1000
1000
1000
1000
1000
1000
1000
999.995
998.167
960.575
944.735
970.529
995.336
997.951
1000
1000
1000
1000
1000
1000
1000
1000
1000
1000
1000
1000
1000
1000
1000
1000
1000
1000
998.651
945.08
942.08
942.231
993.543
1000
1000
1000
1000
1000
1000
1000
1000
1000
1000
1000
1000
1000
1000
1000
1000
1000
1000
1000
996.497
942.08
942.411
992.625
1000
1000
1000
1000
1000
1000
1000
1000
1000
1000
1000
1000
1000
1000
1000
1000
1000
1000
1000
999.999
974.273
992.49
999.993
1000
1000
1000
1000
1000
999.999
999.996
999.994
999.997
999.998
1000
1000
1000
1000
1000
1000
1000
1000
1000
1000
999.999
1000
999.995
1000
1000
999.991
999.999
999.987
999.897
999.585
999.716
999.904
999.972
999.996
1000
1000
1000
1000
1000
1000
1000
1000
1000
1000
1000
999.941
981.77
953.731
920.067
894.508
895.252
910.58
956.252
991.014
998.122
999.997
999.997
999.997
999.995
999.998
1000
1000
1000
1000
1000
1000
1000
1000
999.938
665.848
999.97
999.97
999.97
999.97
773.911
610.258
610.757
887.677
891.915
892.392
892.746
892.755
896.514
897.361
898.494
899.667
899.782
816.392
661.473
999.97
999.97
999.97
999.97
999.97
776.239
789.155
884.087
851.864
712.632
722.027
758.263
806.287
863.677
897.436
902.515
904.923
904.972
477.078
999.969
999.639
999.966
999.97
999.97
811.449
826.258
749.315
128.355
66.8786
82.1564
102.808
148.268
263.805
502.493
779.825
904.684
904.975
438.143
907.941
998.535
999.949
999.963
999.966
766.085
799.318
474.731
4.66885
1.65351
1.34895
1.77855
2.49474
5.73757
15.5571
244.08
904.648
904.972
439.067
831.9
999.264
999.787
999.896
999.946
844.439
658.755
39.5003
1.77605
1.1933
1.26547
1.71099
1.48361
2.52834
6.05576
34.4654
567.437
904.934
603.694
949.917
999.144
999.286
999.235
999.724
997.086
546.931
10.1138
1.57287
1.12491
1.08535
1.14378
1.21218
1.48918
2.74956
7.20213
303.53
904.708
985.791
999.445
999.361
999.135
937.525
936.515
988.422
698.677
37.8573
3.8397
1.1151
1.07835
1.0729
1.09211
1.1622
1.6057
5.00381
234.378
903.792
999.907
999.77
999.606
998.385
602.161
468.49
946.527
893.482
91.7991
2.21104
1.19474
1.07298
1.06711
1.06599
1.08121
1.1989
2.94335
190.109
900.821
369.568
328.433
300.607
312.821
355.736
444.696
581.683
730.994
854.5
946.698
999.999
1000
1000
1000
1000
1000
999.999
1000
1000
1000
1000
1000
999.936
1.00374
1.01591
3.96988
29.6183
62.7035
88.0787
99.0438
122.452
192.909
314.389
481.277
650.914
770.694
884.149
994.783
1000
1000
1000
999.998
999.975
999.989
999.995
999.932
1.00266
1.00466
1
1
1.00001
1.00002
1.00004
1
1
1.00002
6.06894
57.0112
125.616
229.859
369.501
542.305
651.707
721.184
820.158
897.499
933.429
956.249
981.329
1.00027
1.00096
1.00005
1
1.00001
1.00002
1
1
1
1
1.00001
1.00001
1.00001
1.00004
1.00021
1.00106
30.2065
50.6751
88.6991
153.615
225.769
316.104
534.416
1.00001
1.00002
1.00005
1
1
1
1
1
1
1.00001
1.00001
1.00001
1.00001
1.00001
1.00005
1.00021
1.00106
1.00601
1.03393
1.17884
1.89206
5.46606
246.608
1
1
1.00001
1
1
1
1
1
1.00005
1.00043
1.00048
1.00035
1.00006
1.00263
1.01131
1.01102
1.00819
1.00479
1.01142
1.04272
1.24491
2.42558
72.2327
1
1
1
1
1
1
1
1
1.00011
1.00049
1.00049
1.00039
1.00006
1.00041
1.00589
1.00976
1.00378
1.00407
1.00964
1.01241
1.08309
2.67172
3.91507
1
1
1
1
1
1
1
1
1.00004
1.00032
1.00032
1.00002
1.00006
1.00035
1.00036
1.0001
1.00002
1.00022
1.00056
1.00204
1.06739
1.50637
1.63433
1
1
1
1
1
1
1
1
1
1.00001
1.00001
1.00001
1.00036
1.00062
1.00044
1
1
1.00001
1.00005
1.00087
1.01934
1.20783
1.4901
1
1
1
1
1
1
1
1
1
1
1
1
1.00016
1.00055
1.00029
1
1
1
1.00031
1.00097
1.0026
1.16533
1.46273
1
1
1
1
1
1
1
1
1
1
1
1
1.00001
1.00003
1.00002
1
1
1.00001
1.00012
1.00031
1.00336
1.24691
1.44838
1
1
1
1
1
1
1
1
1
1
1
1
1
1
1
1
1
1
1.00002
1.0002
1.02154
1.20347
1.23927
1
1
1
1
1
1
1
1
1
1
1
1
1
1
1
1
1
1
1.00001
1.00027
1.00899
1.02991
1.03966
1
1
1
1
1
1
1
1
1
1
1
1
1
1
1
1
1
1
1
1.00008
1.00033
1.00176
1.0087
1
1
1
1
1
1
1
1
1
1
1
1
1
1
1
1
1
1
1
1
1.00004
1.00035
1.00394
1
1
1
1
1
1
1
1
1
1
1
1
1
1
1
1
1
1
1
1
1.00001
1.00008
1.00262
1
1
1
1
1
1
1
1
1
1
1
1
1
1
1
1
1
1
1
1
1
1.00002
1.00098
1
1
1
1
1
1
1
1
1
1
1
1
1
1
1
1
1
1
1
1
1
1
1.00002
1
1
1
1
1
1
1
1
1
1
1
1
1
1
1
1
1
1
1
1
1
1
1
1
1
1
1
1
1
1
1
1
1
1
1
1
1
1
1
1
1
1
1
1
1
1
1
1
1
1
1
1
1
1
1
1
1
1
1
1
1
1
1
1
1
1
1
1
1
1
1
1
1
1
1
1
1
1
1
1
1
1
1
1
1
1
1
1
1
1
1
1
1
1
1
1
1
1
1
1
1
1
1
1
1
1
1
1
1
1
1
1
1
1
1
1
1
1
1
1
1
1
1
1
1
1
1
1
1
1
1
1
1
1
1
1
1
1
1
1
1
1
1
1
1
1
1
1
1
1
1
1
1
1
1
1
1
1
1
1
1
1
1
1
1
1
1
1
1
1
1
1
1
1
1
1
1
1
1
1
1
1
1
1
1
1
1
1
1
1
1
1
1
1
1
1
1
1
1
1
1
1
1
1
1
1
1
1
1
1
1
1
1
1
1
1
1
1
1
1
1
1
1
1
1
1
1
1
1
1
1
1
1
1
1
1
1
1
1
1
1
1
1
1
1
1
1
1
1
1
1
1
1
1
1
1
1
1
1
1
1
1
1
1
1
1
1
1
1
1
1
1
1
1
1
1
1
1
1
1
1
1
1
1
1
1
1
1
1
1
1
1
1
1
1
1
1
1
1
1
1
1
1
1
1
1
1
1
1
1
1
1
1
1
1
1
1
1
1
1
1
1
1
1
1
1
1
1
1
1
1
1
1
1
1
1
1
1
1
1
1
1
1
1
1
1
1
1
1
1
1
1
1
1
1
1
1
1
1
1
1
1
1
1
1
1
1
1
1
1
1
1
1
1
1
1
1
1
1
1
1
1
1
1
1
1
1
1
1
1
1
1
1
1
1
1
1
1
1
1
1
1
1
1
1
1
1
1
1
1
1
1
1
1
1
1
1
1
1
1
1
1
1
1
1
1
1
1
1
1
1
1
1
1
1
1
1
1
1
1
1
1
1
1
1
1
1
1
1
1
1
1
1
1
1
1
1
1
1
1
1
1
1
1
1
1
1
1
1
1
1
1
1
1
1
1
1
1
1
1
1
1
1
1
1
1
1
1
1
1
1
1
1
1
1
1
1
1
1
1
1
1
1
1
1
1
1
1
1
1
1
1
1
1
1
1
1
1
1
1
1
1
1
1
1
1
1
1
1
1
1
1
1
1
1
1
1
1
1
1
1
1
1
1
1
1
1
1
1
1
1
1
999.956
999.957
999.957
999.955
999.952
999.956
999.953
999.94
994.847
999.089
995.518
986.623
801.149
855.462
657.524
559.598
717.791
668.777
174.357
28.5566
328.196
297.301
55.3307
16.7675
2.20956
28.6073
248.617
353.818
1.50493
2.00271
3.35155
34.0585
1.45653
1.51241
1.88162
3.31396
1.43893
1.46301
1.74866
2.57333
1.36683
1.44641
1.72416
2.36686
1.22479
1.35898
1.81557
2.86321
1.13387
1.30576
1.75847
3.27
1.07828
1.21406
1.6253
5.87835
1.05407
1.15908
1.79286
5.23536
1.03353
1.13427
1.77318
4.09821
1.00661
1.03083
1.35081
1.56123
1.00032
1.00284
1.00875
1.0213
1.00005
1.00043
1.00112
1.00277
1.00001
1.00005
1.00012
1.00031
1
1.00001
1.00001
1.00003
1
1
1
1
1
1
1
1
1
1
1
1
1
1
1
1
1
1
1
1
1
1
1
1
1
1
1
1
1
1
1
1
1
1
1
1
1
1
1
1
1
1
1
1
1
1
1
1
1
1
1
1
1
1
1
1
1
1
1
1
1
1
1
1
1
1
1
1
1
1
1
1
1
1
1
1
1
1
1
1
1
1
1
1
999.948
999.91
999.354
800.088
241.148
66.9811
660.576
861.265
187.049
3.98869
2.00357
1.10189
1.06593
1.06438
1.06593
1.08083
1.21877
129.143
868.517
999.912
999.374
832.392
92.4094
17.4099
27.366
582.325
811.317
627.558
82.0462
1.90369
1.13201
1.06444
1.06438
1.0644
1.0884
1.1449
84.838
782.048
973.395
767.31
59.4158
6.87674
12.1997
369.133
775.416
788.073
740.311
120.63
2.37213
1.18931
1.07288
1.06474
1.08117
1.13915
1.19057
64.0365
755.183
403.988
47.7235
3.05282
1.72848
119.03
364.062
412.207
423.973
416.587
81.2686
3.78204
1.18926
1.08392
1.08267
1.24797
1.35988
1.29692
49.6425
732.427
7.95249
3.0951
1.72776
1.63896
1.51811
1.93576
10.9173
19.0566
20.8113
16.5846
2.19282
1.12912
1.11391
1.50924
2.39696
2.47384
1.69928
43.2651
713.149
15.1139
21.3436
16.9338
1.49346
1.33121
1.47335
5.33001
6.39506
3.35876
1.76348
1.20293
1.15798
1.20135
4.31985
57.1462
38.9706
3.49363
85.1762
710.961
356.198
358.579
177.223
1.33174
1.27524
1.31205
2.11533
2.31516
2.18854
2.17183
1.47017
1.16984
21.5558
232.273
612.277
521.783
48.8202
261.284
723.127
221.312
358.579
334.597
18.3196
1.26821
1.27524
1.31071
1.41814
1.70638
2.33589
2.19171
93.6126
466.022
775.27
844.985
823.947
160.358
467.443
725.376
17.6137
236.635
340.129
226.714
1.26821
1.265
1.27526
1.32523
1.51134
2.376
46.962
455.537
792.668
845.14
845.324
815.543
460.012
574.677
725.376
4.97398
59.404
273.223
318.913
66.0005
1.27526
6.99266
21.57
35.0972
155.932
395.759
472.803
315.771
600.424
846.517
589.585
536.842
327.928
718.651
3.7554
7.23774
92.8326
404.86
518.516
463.274
502.093
528.953
547.767
543.535
514.884
132.157
83.1184
418.144
859.413
609.271
333.579
327.569
577.169
5.64188
21.5505
386.482
653.8
655.271
656.786
656.786
656.786
655.253
294.692
12.7224
33.9896
70.8857
501.896
876.643
891.178
499.262
439.379
862.566
5.14822
7.76749
248.456
598.356
653.88
655.198
656.786
450.775
28.5186
5.70632
7.91972
47.1643
107.871
281.428
752.196
914.169
918.612
915.726
932.777
10.7811
4.55272
1.0167
5.93541
286.514
437.747
172.086
5.91082
3.44681
4.72777
29.9365
31.8736
8.98458
2.29313
114.799
750.872
927.623
932.532
932.933
7.11379
1.00679
1.00284
1.02046
1.03435
1.00467
13.6263
9.19743
2.53907
1.22848
1.00086
1.00387
1.01994
1.10772
1.66551
68.6888
612.038
919.902
932.532
2.44238
1.00276
1.00264
1.00272
1.00265
1.00292
1.00287
1.0019
1.00252
1.00014
1.00028
1.00086
1.0039
1.02302
1.10179
1.6259
4.73914
406.827
830.718
1.1499
1.03203
1.00954
1.0034
1.02337
1.04933
1.0477
1.00139
1.00015
1.0001
1.00034
1.00059
1.00195
1.00695
1.03069
1.10122
1.57051
38.9044
689.136
1.03038
1.03475
1.00909
1.00069
1.00051
1.00354
1.01676
1.01014
1.00253
1.00007
1.0018
1.01458
1.02706
1.02878
1.03155
1.05089
1.40843
24.887
177.661
1.00407
1.0061
1.00342
1.00045
1.00002
1
1.00001
1.00013
1.0002
1.00004
1.00002
1.02049
1.06838
1.06886
1.06532
1.04766
1.78747
8.55407
33.7532
1.00043
1.00038
1.00023
1.0001
1.00001
1
1
1.00001
1.00002
1.00002
1.00002
1.00002
1.04846
1.06914
1.06886
1.04252
2.65274
2.22475
26.9247
1.00004
1.00004
1.00003
1.00001
1
1
1.00001
1.00008
1.00014
1.00009
1.00002
1.00003
1.00003
1.05043
1.06914
1.03813
1.00471
1.8533
46.9546
1
1
1
1
1
1
1.00017
1.00032
1.00032
1.00027
1.00005
1.00003
1.00004
1.00473
1.06442
1.01545
1.0041
1.23983
96.7104
1
1
1
1
1
1
1.00006
1.00022
1.00032
1.00038
1.00039
1.00007
1.00004
1.00153
1.01811
1.00541
1.00375
1.01525
99.2935
1
1
1
1
1
1
1
1
1.00025
1.0016
1.0016
1.00058
1.00024
1.00556
1.00325
1.00323
1.00325
1.00442
99.3578
1
1
1
1
1
1
1
1
1.0011
1.0016
1.0016
1.00104
1.00022
1.00439
1.00436
1.00309
1.00323
1.00527
98.9077
1
1
1
1
1
1
1
1
1
1.0013
1.0016
1.00108
1.00024
1.00357
1.00216
1.00261
1.0031
1.00967
98.3835
1
1
1
1
1
1
1.00001
1.00001
1.00001
1.00007
1.00156
1.00131
1.00027
1.00148
1.00058
1.01131
1.01501
1.03096
97.5149
1
1
1
1
1
1.00001
1.00003
1.00003
1.00001
1.00001
1.00101
1.00139
1.00079
1.00107
1.00031
1.01047
2.04989
1.73365
75.1252
1
1
1
1
1
1
1
1.00003
1.00003
1.00001
1.00058
1.00139
1.00117
1.00031
1.00031
1.00762
2.87595
2.60512
2.5648
1
1
1
1
1
1
1
1.00003
1.00005
1.00003
1.00009
1.00088
1.00047
1.00031
1.00031
1.18542
2.89055
1.91695
2.04306
1
1
1
1
1
1
1.00004
1.00048
1.00012
1.00003
1.00003
1.00003
1.00003
1.00648
1.00031
1.69542
2.87595
1.124
29.3844
1
1
1
1
1
1
1.00028
1.00136
1.00056
1.00003
1.00003
1.00003
1.00077
1.01112
1.00036
1.57934
2.08512
1.00022
82.5243
1
1
1
1
1
1
1.00041
1.00136
1.00132
1.00007
1.00006
1.00004
1.00004
1.01214
1.00167
1.00007
1.00003
1.0001
82.811
1
1
1
1
1
1
1.00006
1.00134
1.00136
1.00025
1.00186
1.00289
1.04145
1.04286
1.00833
1.00002
1.00001
1.00003
82.3237
1
1
1
1
1
1
1
1.00016
1.00116
1.00013
1.01591
1.03448
1.04357
1.04303
1.0076
1
1
1.00001
85.9698
1
1
1
1
1
1
1
1
1
1
1.00485
1.02347
1.02266
1
1
1
1
1
89.9745
1
1
1
1
1
1
1
1
1
1
1
1
1
1
1
1
1
1.32405
90.0105
1
1
1
1
1
1
1
1
1
1
1
1
1
1
1
1
1
1.73577
90.0105
1
1
1
1
1
1
1
1
1
1
1
1
1
1
1
1
1.00078
1.60162
89.987
1
1
1
1
1
1
1
1
1
1
1
1
1
1
1
1
1
2.21762
89.7111
1
1
1
1
1
1
1
1
1
1
1
1
1
1
1
1
1
2.92412
32.5934
1
1
1
1
1
1
1
1
1
1
1
1
1
1
1
1
1
1
1
)
;

boundaryField
{
    leftWall
    {
        type            calculated;
        value           nonuniform List<scalar> 
50
(
1000
1000
1000
1000
1000
1000
1000
981.77
369.568
1.00374
1.00266
1.00027
1.00001
1
1
1
1
1
1
1
1
1
1
1
1
1
1
1
1
1
1
1
1
1
1
1
1
1
1
1
1
1
1
1
1
1
1
1
1
1
)
;
    }
    rightWall
    {
        type            calculated;
        value           nonuniform List<scalar> 
50
(
816.392
904.972
904.975
904.972
904.934
904.708
903.792
900.821
868.517
782.048
755.183
732.427
713.149
710.961
723.127
725.376
725.376
718.651
577.169
862.566
932.777
932.933
932.532
830.718
689.136
177.661
33.7532
26.9247
46.9546
96.7104
99.2935
99.3578
98.9077
98.3835
97.5149
75.1252
2.5648
2.04306
29.3844
82.5243
82.811
82.3237
85.9698
89.9745
90.0105
90.0105
89.987
89.7111
32.5934
1
)
;
    }
    lowerWall
    {
        type            calculated;
        value           nonuniform List<scalar> 
62
(
1000
1000
1000
1000
1000
1000
1000
1000
1000
1000
1000
1000
1000
1000
1000
1000
999.998
985.154
940.209
951.209
998.523
998.531
998.52
998.52
997.951
993.543
992.625
999.993
999.995
999.941
999.938
999.956
999.957
999.957
999.955
665.848
661.473
477.078
438.143
439.067
603.694
985.791
999.907
665.848
999.97
999.97
999.97
999.97
773.911
610.258
610.757
887.677
891.915
892.392
892.746
892.755
896.514
897.361
898.494
899.667
899.782
816.392
)
;
    }
    atmosphere
    {
        type            calculated;
        value           uniform 1;
    }
    defaultFaces
    {
        type            empty;
    }
}


// ************************************************************************* //
