/*--------------------------------*- C++ -*----------------------------------*\
  =========                 |
  \\      /  F ield         | OpenFOAM: The Open Source CFD Toolbox
   \\    /   O peration     | Website:  https://openfoam.org
    \\  /    A nd           | Version:  13
     \\/     M anipulation  |
\*---------------------------------------------------------------------------*/
FoamFile
{
    format      ascii;
    class       volScalarField;
    location    "0.5";
    object      alpha.water;
}
// * * * * * * * * * * * * * * * * * * * * * * * * * * * * * * * * * * * * * //

dimensions      [];

internalField   nonuniform List<scalar> 
2268
(
1
1
1
1
1
1
1
1
1
1
1
1
1
1
1
1
1
1
0.996535
0.901157
0.901108
0.966124
0.998628
1
1
1
1
1
1
1
1
1
1
1
1
1
1
1
1
1
1
1
0.974084
0.901647
0.971053
0.99863
1
1
1
1
1
1
1
1
1
1
1
1
1
1
1
1
1
1
1
0.999995
0.90235
0.961374
0.998631
1
1
1
1
1
1
1
1
1
1
1
1
1
1
1
1
1
1
1
1
0.952365
0.979164
0.998891
1
1
1
1
1
1
1
1
1
1
1
1
1
1
1
1
1
1
1
1
0.999997
0.999638
0.99964
1
1
1
1
1
0.999999
0.999999
0.999999
1
1
1
1
1
1
1
1
1
1
1
1
1
1
0.99966
1
1
1
0.999998
0.999996
0.999988
0.999987
0.999991
0.999995
0.999998
0.999999
1
1
1
1
1
1
1
1
1
1
1
0.999664
1
1
0.999988
0.999941
0.999905
0.999726
0.999794
0.999883
0.999934
0.999962
0.999979
0.999989
0.999994
0.999998
1
1
1
1
1
1
1
1
0.999669
0.00497283
0.00421113
0.00367484
0.00356219
0.00265803
0.000110436
2.11372e-06
8.82712e-07
7.63928e-07
7.68437e-07
4.64797e-05
0.000278789
0.00532931
0.110859
0.226133
0.315814
0.435793
0.528334
0.447564
0.0125665
0.0278737
0.0181794
0.0140739
0.0114464
0.00632479
0.000136285
1.05769e-06
9.42534e-07
8.45045e-06
0.000201777
0.0106528
0.0186563
0.00863067
0.000920844
0.0394123
0.281559
0.540499
0.658999
0.360464
0.0384707
0.0090193
0.00147353
0.0022649
0.00670546
0.003171
4.27052e-05
3.81892e-06
1.91936e-05
0.00342165
0.00805524
0.00152519
6.40016e-05
0.000355035
0.000984696
0.00389538
0.143136
0.659512
0.649812
4.69552e-05
2.05086e-05
1.67001e-05
1.45129e-05
0.00128487
0.00317983
0.000384098
8.07089e-05
0.00194697
0.00356345
0.00263503
2.95043e-05
3.33813e-05
3.36526e-05
0.000268746
0.0013781
0.0899147
0.658883
0.657519
0.000264873
2.23733e-05
1.8084e-05
1.26568e-05
0.000266099
0.00202991
0.000432169
0.000610144
0.00370723
0.00360347
0.000827029
2.80985e-05
1.90341e-05
4.31151e-06
3.99254e-05
0.000396779
0.0459033
0.653679
0.737756
0.0180367
2.90199e-05
1.1805e-05
1.20247e-05
0.000115279
0.000393006
0.00046378
0.00285727
0.00379894
0.00370723
0.00144461
2.53074e-05
2.30565e-05
1.39607e-06
2.8188e-06
7.10749e-05
0.0175124
0.429585
0.966493
0.61178
0.000423156
1.33056e-05
3.02134e-06
2.28676e-05
2.90154e-05
0.000434429
0.00379894
0.00382963
0.00379894
0.0017956
1.80772e-05
1.49085e-05
1.04292e-06
4.91529e-07
2.01225e-06
0.00526587
0.0987584
0.999972
0.997294
0.111592
1.24617e-05
2.57846e-06
1.93924e-06
4.36213e-06
0.000227414
0.00250734
0.00381858
0.00381959
0.000583433
0.000148518
8.54475e-06
9.33198e-07
3.57509e-07
4.2265e-07
0.00613362
0.565697
0.999996
0.999964
0.977345
0.932961
0.942282
0.969031
0.987053
0.994951
0.998712
0.999254
0.999409
0.999558
0.999706
0.999906
0.999964
0.999999
1
1
1
1
1
1
0.99984
0.872293
0.632495
0.369813
0.239566
0.293582
0.390714
0.447508
0.49661
0.571582
0.6578
0.74393
0.827988
0.904904
0.963556
0.999982
0.999999
1
1
1
1
1
1
0.99998
0.0871926
2.24776e-17
1.64437e-15
8.25294e-14
4.76144e-14
4.90853e-14
5.13324e-14
1.99071e-13
9.20769e-12
0.0168575
0.0489113
0.0945459
0.160373
0.258829
0.415158
0.654523
0.944542
1
1
1
1
1
1
7.51244e-19
9.50001e-19
2.23267e-17
1.8908e-15
4.65671e-14
4.76144e-14
4.90854e-14
5.13324e-14
2.00356e-13
9.20819e-12
2.39946e-10
3.8199e-09
1.51898e-08
4.18206e-08
5.02827e-07
0.0227101
0.0948793
0.26649
0.550254
0.914173
1
0.999998
0.999997
6.91689e-19
7.51245e-19
2.07809e-16
1.27451e-14
2.65646e-13
1.01099e-12
1.94474e-12
5.65454e-12
6.9474e-10
1.52448e-08
4.7453e-08
2.21733e-08
2.2199e-08
2.27003e-08
4.18176e-08
5.04011e-07
7.77765e-06
0.00501775
0.0358665
0.0907497
0.21162
0.429226
0.765529
6.49327e-19
5.36103e-18
4.51299e-16
3.6232e-14
2.22969e-12
6.9134e-12
1.15834e-11
1.45436e-11
1.51284e-09
2.52094e-07
5.18779e-07
3.4252e-07
4.75973e-08
4.84452e-08
1.54543e-05
5.53533e-05
5.35222e-05
5.37522e-05
5.38913e-05
5.49824e-05
0.000484545
0.00917816
0.0310836
3.17377e-19
2.15022e-17
9.66966e-15
4.02459e-13
3.8729e-12
1.15213e-11
1.65511e-11
1.66921e-11
8.36595e-09
3.74993e-07
5.18779e-07
5.18779e-07
2.52074e-07
9.56169e-08
1.02506e-06
7.38658e-05
6.19859e-05
5.48658e-05
0.000105694
0.000119643
5.68772e-06
6.79255e-06
6.57391e-06
7.45991e-20
1.28059e-18
4.18937e-15
3.25695e-13
3.86244e-12
1.22274e-11
1.7441e-11
1.73998e-11
1.91732e-11
1.21294e-07
4.53385e-07
2.49025e-07
4.15735e-08
1.30273e-07
3.74258e-07
1.99662e-06
2.35615e-11
7.9556e-12
1.19661e-11
1.8101e-09
5.19716e-06
7.52333e-05
5.84599e-05
1.35418e-20
4.32608e-20
9.76469e-16
1.43052e-13
2.46708e-12
9.80839e-12
1.50949e-11
1.86905e-11
7.4968e-11
6.62353e-11
6.618e-11
6.6468e-11
6.97129e-11
5.31809e-07
1.32573e-06
1.2537e-09
7.9556e-12
7.71792e-12
8.64772e-11
1.46837e-10
4.11098e-05
0.00031904
0.000335338
3.53204e-21
9.26703e-21
2.27732e-16
4.42807e-14
8.62799e-13
4.35584e-12
9.49319e-12
1.43164e-11
4.77636e-11
1.20837e-10
2.03165e-10
3.4947e-10
4.49145e-09
3.99841e-07
1.06916e-06
1.05278e-07
6.35636e-12
4.47283e-12
1.76379e-12
1.02131e-06
4.59367e-05
0.000181095
0.00042864
2.01574e-21
2.71104e-21
5.50073e-17
1.33906e-14
2.49195e-13
1.23154e-12
3.25262e-12
5.9321e-12
5.08238e-11
5.88354e-10
1.13727e-09
2.35986e-09
7.21802e-09
1.03779e-11
1.02363e-11
1.02025e-11
1.02025e-11
1.48955e-12
6.89245e-13
1.22521e-12
9.10302e-11
1.09149e-08
0.000141766
1.83745e-21
1.70386e-21
9.63493e-18
3.18263e-15
6.07754e-14
2.86186e-13
9.77545e-13
3.06143e-12
1.03519e-11
2.75304e-10
1.27161e-09
2.87801e-09
2.4767e-09
6.89257e-11
2.59277e-11
1.0233e-11
8.40476e-12
1.38316e-12
5.82376e-13
6.07201e-13
6.54476e-13
9.57541e-13
7.61965e-11
1.60646e-21
3.26687e-22
1.45616e-18
5.85068e-16
1.19215e-14
5.88453e-14
2.88236e-13
1.2864e-12
2.41421e-12
3.14254e-11
4.83608e-10
2.15842e-09
1.77538e-09
2.96807e-10
8.01666e-11
1.72741e-11
3.46137e-12
1.07595e-12
5.82717e-13
6.51871e-13
6.52174e-13
6.62957e-13
8.31759e-13
3.78179e-22
5.15114e-23
2.43445e-19
9.25921e-17
1.89895e-15
9.21812e-15
5.94527e-14
4.58406e-13
1.57876e-12
7.26258e-12
7.68291e-11
2.8828e-10
3.76956e-10
2.76403e-10
5.93355e-11
4.62528e-12
1.04007e-12
5.45788e-13
4.91578e-13
9.7668e-13
1.48987e-12
1.75302e-12
1.74853e-12
3.24826e-23
9.49773e-24
4.64936e-20
1.20082e-17
2.44776e-16
1.20006e-15
1.09369e-14
1.25961e-13
8.88493e-13
4.32729e-12
7.12427e-12
4.28601e-12
1.11929e-13
1.70367e-11
7.14434e-12
5.69572e-13
1.2597e-13
6.30319e-14
1.49079e-13
8.88162e-13
2.2047e-12
4.6224e-12
1.40079e-11
2.57008e-24
1.91141e-24
9.89966e-21
1.24368e-18
2.48839e-17
1.29242e-16
1.93991e-15
3.50838e-14
3.67573e-13
1.0698e-12
6.30771e-13
1.19313e-13
1.1191e-13
4.5178e-14
1.10085e-13
4.38089e-14
2.02707e-14
8.51518e-15
7.42616e-15
5.19252e-14
4.53368e-13
2.82361e-12
1.19446e-11
1.98844e-25
5.05263e-25
1.85992e-21
1.03053e-19
1.92319e-18
1.1438e-17
3.57134e-16
6.83812e-15
4.35419e-14
9.99085e-14
1.44243e-13
1.62596e-13
1.24665e-13
4.25665e-14
7.49402e-15
4.29929e-15
2.41469e-15
1.39198e-15
2.24513e-15
2.3424e-14
1.95837e-13
1.14833e-12
5.91132e-12
1.29306e-26
2.29815e-25
2.52272e-22
7.00464e-21
1.07945e-19
8.59692e-19
4.6439e-17
7.7058e-16
5.02255e-15
2.00279e-14
6.23886e-14
9.83148e-14
4.73816e-14
1.40735e-14
1.57265e-15
3.88129e-16
2.12218e-16
1.85701e-16
7.90882e-16
9.23516e-15
9.2864e-14
5.82245e-13
2.56067e-12
6.50489e-28
3.51295e-26
2.31677e-23
4.09712e-22
4.05587e-21
6.29016e-20
4.72528e-18
6.58306e-17
5.06302e-16
3.62873e-15
9.7839e-15
1.23002e-14
3.95129e-15
1.27945e-15
2.75299e-16
6.1375e-17
3.01477e-17
3.09133e-17
2.2477e-16
3.31715e-15
4.06803e-14
2.91955e-13
1.17997e-12
2.24664e-29
2.24081e-27
1.36157e-24
1.99301e-23
9.08409e-23
4.39325e-21
4.0162e-19
6.58865e-18
6.67598e-17
3.9984e-16
7.04092e-16
5.93168e-16
3.61343e-16
1.50828e-16
4.5168e-17
9.76369e-18
3.72017e-18
5.14841e-18
6.22138e-17
1.10684e-15
1.72926e-14
1.5172e-13
6.48939e-13
5.66602e-31
5.71824e-29
4.0009e-26
5.52501e-25
1.13611e-24
3.79132e-22
3.59741e-20
6.82199e-19
5.59891e-18
2.37858e-17
3.76556e-17
3.9325e-17
3.26135e-17
1.91927e-17
6.7177e-18
1.19916e-18
3.42177e-19
1.01968e-18
1.65066e-17
3.53135e-16
7.71167e-15
8.77475e-14
4.23471e-13
3.05796e-32
1.49587e-33
8.79529e-30
6.37208e-28
2.18748e-26
2.72046e-23
2.82878e-21
6.19452e-20
4.03601e-19
1.37173e-18
2.86319e-18
3.33976e-18
3.09675e-18
2.02276e-18
7.67564e-19
1.53232e-19
5.71916e-20
2.57563e-19
4.37621e-18
1.15693e-16
3.76191e-15
5.65021e-14
3.14897e-13
5.23653e-34
6.95866e-35
9.06136e-31
7.46793e-29
2.68508e-27
8.4572e-25
1.28079e-22
3.47267e-21
2.60316e-20
9.33098e-20
2.00804e-19
2.35874e-19
2.14239e-19
1.35588e-19
5.0163e-20
1.1718e-20
7.3271e-21
5.92622e-20
1.175e-18
4.07925e-17
1.93696e-15
3.69646e-14
2.38318e-13
2.11221e-36
2.67699e-37
2.20136e-32
3.06062e-30
7.64809e-29
3.31578e-27
2.50025e-24
1.01222e-22
9.20918e-22
3.87503e-21
8.68859e-21
1.00935e-20
8.97646e-21
5.47031e-21
1.95539e-21
6.55576e-22
9.2304e-22
1.42814e-20
3.35136e-19
1.4777e-17
9.57087e-16
2.22958e-14
1.60692e-13
1.28161e-38
7.11077e-38
9.08235e-36
1.93836e-34
5.07896e-34
9.56386e-31
4.88625e-27
7.53544e-25
1.24109e-23
6.92523e-23
1.47485e-22
1.62278e-22
1.42306e-22
9.19001e-23
4.26841e-23
2.52573e-23
1.592e-22
3.69297e-21
9.89434e-20
5.03778e-18
4.05514e-16
1.10312e-14
8.59054e-14
1.41252e-40
3.6885e-41
6.49826e-39
8.40188e-37
6.27394e-35
4.41868e-32
9.40123e-30
1.6801e-27
2.73432e-26
1.37599e-25
3.45803e-25
4.93889e-25
5.23494e-25
4.90906e-25
4.51556e-25
1.49433e-24
3.48186e-23
9.95467e-22
2.94175e-20
1.53617e-18
1.43887e-16
4.51288e-15
3.72747e-14
7.86137e-43
6.8264e-45
2.04572e-40
3.19633e-38
7.07383e-37
3.25762e-36
2.54798e-32
5.99486e-30
1.26719e-28
7.89787e-28
2.59593e-27
5.50267e-27
8.14032e-27
9.24864e-27
1.58232e-26
2.54994e-25
8.59877e-24
2.77843e-22
8.61733e-21
4.20732e-19
4.43243e-17
1.65089e-15
1.47771e-14
4.65747e-45
3.71276e-48
1.07964e-44
1.08506e-42
3.4709e-41
8.30736e-40
1.19641e-37
3.70392e-34
1.12374e-31
2.71912e-30
1.78028e-29
5.35846e-29
8.38627e-29
1.09522e-28
1.26754e-27
5.44688e-26
2.14287e-24
7.55346e-23
2.37409e-21
1.03358e-19
1.20696e-17
5.35194e-16
4.94022e-15
3.54975e-47
2.19936e-49
1.8945e-48
4.55112e-46
2.33974e-43
3.02844e-41
2.58017e-40
9.47388e-38
1.16576e-34
6.79176e-33
5.45824e-32
1.80121e-31
3.53259e-31
3.80091e-30
2.26003e-28
1.15967e-26
5.06234e-25
1.84431e-23
5.80768e-22
2.15341e-20
2.53484e-18
1.42132e-16
1.45828e-15
2.76269e-49
2.60565e-51
8.40099e-51
6.012e-49
3.27741e-47
1.47101e-45
2.60416e-43
7.13775e-41
1.61417e-38
1.68078e-36
2.51822e-35
2.13785e-34
1.22693e-32
5.66964e-31
3.86951e-29
2.225e-27
1.02423e-25
3.76905e-24
1.21882e-22
3.91749e-21
4.08487e-19
3.04745e-17
3.70012e-16
2.08025e-51
3.25088e-53
9.88745e-53
3.28333e-50
6.0375e-49
1.15039e-46
8.67562e-45
5.222e-42
3.88576e-40
5.51622e-39
4.20826e-37
1.98979e-35
1.71436e-33
8.09375e-32
6.14221e-30
3.45527e-28
1.68475e-26
6.30061e-25
2.19651e-23
6.6515e-22
5.36769e-20
5.28324e-18
7.9518e-17
1.49823e-53
3.56141e-55
9.67474e-54
3.45493e-51
4.44963e-50
3.62991e-48
8.17867e-46
2.04515e-43
1.57265e-41
5.25951e-40
4.55683e-38
1.76126e-36
1.76991e-34
1.14416e-32
7.70231e-31
4.26278e-29
2.27767e-27
8.87409e-26
3.51701e-24
1.10773e-22
6.71921e-21
7.7034e-19
1.44417e-17
1.01671e-55
3.21836e-57
4.30461e-55
9.79434e-53
7.85485e-52
7.14211e-50
2.38679e-47
9.72799e-46
8.91302e-44
1.55613e-41
1.75396e-39
1.27667e-37
2.27558e-35
1.33424e-33
7.52815e-32
4.61561e-30
2.68523e-28
1.13402e-26
5.28902e-25
1.81811e-23
9.20094e-22
1.03147e-19
2.27626e-18
6.38714e-58
3.08978e-59
8.6242e-58
2.04271e-56
1.0467e-53
5.25065e-51
1.05721e-49
1.63721e-47
8.19424e-45
4.23452e-43
7.73156e-41
1.17081e-38
2.17339e-36
1.08316e-34
6.61326e-33
5.0559e-31
2.97236e-29
1.41018e-27
7.60206e-26
2.7996e-24
1.32728e-22
1.32752e-20
3.17989e-19
3.65227e-60
2.00526e-61
3.76065e-61
4.60524e-58
2.97267e-55
1.70954e-52
3.98283e-51
6.43088e-49
3.02704e-46
3.49243e-44
8.093e-42
7.67636e-40
9.61879e-38
6.17216e-36
5.76541e-34
5.34337e-32
3.03864e-30
1.61874e-28
9.56108e-27
3.6959e-25
1.73747e-23
1.54684e-21
3.87046e-20
1.87371e-62
1.03173e-63
8.28576e-63
3.95478e-59
2.40097e-57
1.13593e-55
2.29317e-52
2.26146e-50
5.64621e-49
1.18802e-45
3.78665e-43
2.46642e-41
1.47134e-39
2.50886e-37
3.80334e-35
3.898e-33
2.36108e-31
1.39528e-29
8.94463e-28
3.81491e-26
1.80481e-24
1.47871e-22
3.95906e-21
8.53071e-65
5.19173e-66
1.42282e-64
3.73425e-62
9.14005e-61
2.24015e-58
2.40782e-55
1.86541e-52
3.16097e-50
3.24666e-48
1.73332e-45
1.05102e-43
3.89583e-41
8.02905e-39
1.07236e-36
1.21133e-34
1.02159e-32
7.20204e-31
5.39321e-29
2.91196e-27
1.38809e-25
1.10799e-23
3.30277e-22
3.4294e-67
2.15794e-68
6.47006e-68
2.52827e-66
1.65151e-63
1.03673e-59
1.76096e-57
9.13936e-54
1.61773e-51
1.22381e-50
2.23084e-48
2.69857e-45
2.06022e-42
1.57014e-40
9.14758e-39
8.48006e-37
1.79583e-34
2.10893e-32
2.0067e-30
1.55727e-28
7.63229e-27
6.61603e-25
2.19794e-23
1.22417e-69
7.17558e-71
1.01629e-71
1.60571e-68
8.87207e-66
4.37499e-62
7.25912e-60
8.94706e-57
1.94865e-54
4.56515e-52
3.7298e-50
3.613e-47
8.94479e-45
1.1703e-42
3.18096e-40
1.82393e-38
1.25713e-36
4.23791e-34
4.95112e-32
4.70703e-30
2.66628e-28
2.97738e-26
1.12025e-24
3.95148e-72
1.99776e-73
9.59278e-75
3.71094e-72
1.43859e-69
6.13353e-66
4.94197e-63
2.08665e-60
3.92652e-58
4.66536e-55
1.03211e-52
3.83913e-50
5.93437e-48
1.64669e-45
9.87228e-43
1.1692e-40
1.3459e-38
1.85492e-36
3.26824e-34
3.25813e-32
3.58089e-30
7.7866e-28
3.71485e-26
1.19053e-74
4.13668e-76
2.38954e-77
5.84182e-75
2.88308e-72
1.36596e-69
1.13501e-66
6.41107e-64
1.99495e-61
4.61825e-59
3.80217e-56
3.78073e-53
1.17245e-50
3.1879e-48
8.4713e-46
1.45498e-43
2.75329e-41
4.10166e-39
6.97178e-37
8.35676e-35
1.4098e-32
3.39299e-30
2.86971e-28
1.86754e-77
1.03165e-77
1.03165e-77
2.3858e-77
7.64321e-75
3.83601e-72
3.30873e-69
1.95578e-66
9.14324e-64
1.99149e-61
4.60346e-59
1.65451e-56
6.05105e-54
1.49319e-51
7.15643e-49
1.41109e-46
3.55898e-44
7.41272e-42
1.21677e-39
1.54414e-37
2.41014e-35
4.06223e-33
3.68004e-31
0.999525
0.999524
0.999524
0.999637
0.999968
0.999998
0.999733
0.99964
1
0.999999
0.999999
0.999978
0.999981
0.999981
0.999988
0.99998
0.943963
0.96953
0.983365
0.993539
0.0686664
0.113663
0.196637
0.398311
6.57455e-06
6.57391e-06
6.95957e-06
5.72157e-05
8.89983e-05
8.5279e-05
9.5525e-05
0.00010335
0.000220739
0.000118708
0.000100386
0.000101933
0.000428629
0.000330191
0.000119135
0.000105891
0.000429419
0.000430199
0.000430199
0.000430193
4.5599e-05
0.000341424
0.000424682
0.000185284
2.30242e-12
6.32645e-12
1.40942e-11
2.48054e-11
1.87626e-12
2.88538e-12
6.70731e-12
1.5118e-11
6.56491e-11
3.12528e-10
7.42903e-10
1.07766e-09
2.9158e-11
5.63884e-11
9.2304e-11
1.37525e-10
1.99222e-11
4.38606e-11
6.92165e-11
9.20656e-11
7.45161e-12
1.79112e-11
3.24119e-11
4.66974e-11
2.71863e-12
6.17443e-12
1.44947e-11
2.76584e-11
1.37155e-12
2.72964e-12
8.14194e-12
2.31327e-11
9.09683e-13
1.74859e-12
6.07743e-12
2.19217e-11
7.0393e-13
1.19988e-12
3.79133e-12
1.97065e-11
5.78914e-13
9.10959e-13
1.76978e-12
1.24049e-11
4.20992e-13
6.79868e-13
1.04968e-12
5.47762e-12
2.37754e-13
4.14131e-13
6.16729e-13
1.73256e-12
1.061e-13
2.05593e-13
3.24863e-13
3.79773e-13
4.30257e-14
8.88205e-14
1.49461e-13
1.7817e-13
1.3882e-14
3.89086e-14
1.09548e-13
1.56075e-13
4.02675e-15
1.42185e-14
7.41762e-14
2.07795e-13
1.01989e-15
3.66626e-15
3.32952e-14
2.20684e-13
2.22803e-16
6.30645e-16
5.55338e-15
6.3326e-14
4.16201e-17
9.65966e-17
4.7478e-16
4.66883e-15
6.70915e-18
1.53871e-17
6.41879e-17
5.11627e-16
9.62516e-19
2.46815e-18
1.26154e-17
1.04475e-16
1.24858e-19
3.97811e-19
2.75673e-18
2.41898e-17
1.45575e-20
6.40449e-20
6.03493e-19
6.15245e-18
1.47326e-21
9.63164e-21
1.17109e-19
1.40541e-18
1.18254e-22
1.21227e-21
1.81395e-20
2.49051e-19
6.39228e-24
1.13095e-22
2.04927e-21
3.20198e-20
1.83778e-25
6.33458e-24
1.41516e-22
2.62835e-21
4.56253e-27
1.1964e-25
3.84758e-24
1.01048e-22
1.44217e-29
2.69049e-28
1.13493e-26
3.98681e-25
0.999962
0.999987
0.600274
0.0138745
1.51587e-05
1.93883e-06
1.93883e-06
2.80264e-05
7.85482e-05
0.00167836
0.00187234
0.000542607
3.0625e-05
2.55491e-06
3.13853e-07
1.92632e-07
3.1963e-07
4.22601e-07
0.805702
0.99981
0.999987
0.943285
0.118149
1.08076e-05
2.24892e-06
2.34922e-06
3.04564e-06
1.42496e-05
4.65775e-05
2.84993e-05
5.10017e-05
1.73776e-05
2.4292e-07
9.72241e-08
8.90896e-08
1.07277e-07
4.31405e-07
0.813795
0.99997
0.999987
0.981847
0.152827
4.1388e-05
2.35239e-06
2.70542e-06
1.72906e-06
2.9193e-06
4.94878e-06
4.95161e-06
5.62843e-06
1.12812e-06
6.21446e-08
6.35473e-08
8.92901e-08
1.0998e-07
3.88888e-06
0.815726
0.999987
0.999987
0.998113
0.164595
6.04267e-05
2.29048e-06
2.45062e-06
1.22681e-06
6.98384e-07
6.13968e-07
5.99333e-07
4.60436e-07
7.6199e-08
6.05938e-09
1.58866e-07
8.89312e-08
9.19597e-08
0.00790662
0.884502
0.999324
0.999984
0.99998
0.510587
0.00970669
7.20009e-07
5.40563e-07
5.52997e-07
4.44897e-07
2.49329e-07
8.30362e-08
2.55438e-08
4.40901e-09
3.81749e-09
1.65115e-06
2.20107e-06
1.08639e-08
0.33011
0.930732
0.851147
0.998073
0.999979
0.970685
0.393182
2.29049e-06
0.00657137
0.000439374
1.03806e-05
2.26397e-07
2.91516e-08
6.1307e-09
3.81517e-09
3.65438e-09
3.67301e-09
3.65429e-09
7.2591e-09
0.685732
0.942621
0.0373815
0.38964
0.955564
0.983985
0.98397
0.841909
0.456945
2.22201e-06
2.24118e-07
3.20276e-08
8.67341e-09
5.43042e-09
4.77551e-09
0.146777
0.135965
0.0195398
0.185638
0.884978
0.943454
0.000104728
0.000107661
0.097435
0.49982
0.976275
0.974072
0.971507
0.843561
0.519753
0.158025
0.139794
0.274561
0.455679
0.755969
0.809605
0.767317
0.845645
0.943409
0.943536
0.000105963
0.000107414
0.000107554
0.0135071
0.161586
0.459979
0.814952
0.85828
0.858287
0.853555
0.868486
0.914509
0.935897
0.939554
0.941762
0.943237
0.943518
0.943536
0.943536
0.000107369
0.000107542
0.000107443
0.000107725
0.000111564
0.0043318
0.070151
0.248819
0.430202
0.566413
0.683987
0.747494
0.740171
0.696085
0.585045
0.604357
0.778351
0.942877
0.943536
0.000322773
0.0001816
0.000403802
0.000434485
0.000432538
0.000319516
4.69599e-07
8.45025e-06
0.00251494
0.0245399
0.0664844
0.0958082
0.0889875
0.0575427
0.0349363
0.0390322
0.206227
0.824788
0.943334
0.000237076
0.000436279
0.000435968
0.000400441
9.17311e-05
3.75275e-06
1.24686e-07
7.40749e-06
4.99807e-05
0.000159236
0.00085617
0.00266407
0.00453758
0.00674427
0.0249148
0.0738636
0.366078
0.860422
0.942934
1.69395e-05
2.33746e-05
2.86922e-05
4.88364e-10
4.96112e-10
6.77603e-10
9.49956e-08
7.72818e-07
2.00008e-06
8.49026e-06
6.61797e-05
0.000409046
0.00264347
0.186225
0.581704
0.733215
0.83663
0.91807
0.942725
2.47627e-11
3.41187e-11
3.97964e-11
4.83517e-10
7.24318e-10
7.6503e-10
1.77228e-08
7.8511e-08
2.79896e-07
3.05286e-06
3.70728e-05
0.000404649
0.00592414
0.372693
0.805849
0.919454
0.919855
0.920209
0.818793
1.23282e-09
1.23584e-09
8.50433e-10
5.42961e-10
6.20102e-10
6.24995e-10
7.65487e-10
4.20799e-09
7.97335e-08
4.11928e-06
9.71858e-05
0.00151806
0.00505809
0.00428232
0.0698137
0.608939
0.920209
0.920301
0.729839
2.4125e-10
3.94788e-10
5.067e-10
5.67079e-10
5.97059e-10
5.98335e-10
6.14677e-10
1.16264e-09
3.24411e-08
2.45613e-06
5.30433e-05
0.000859552
0.00530058
0.00400695
0.00183181
0.0757804
0.752358
0.920284
0.729822
1.42749e-10
2.59305e-10
6.07042e-10
1.27593e-09
1.75135e-09
1.74743e-09
1.36664e-09
1.58706e-09
1.49153e-08
1.27762e-06
1.85206e-05
0.000337175
0.00526932
0.00238803
0.0011033
0.145216
0.567945
0.885381
0.775285
7.95231e-11
1.74853e-10
8.15248e-10
2.54284e-09
3.52942e-09
3.01179e-09
1.66126e-09
2.05403e-09
4.91305e-09
5.73068e-07
7.37995e-06
0.000104731
0.0014623
7.88519e-06
0.00102884
0.282129
0.564925
0.604515
0.852428
5.38582e-11
9.78611e-11
2.07693e-10
4.85758e-10
5.3352e-09
2.96788e-08
2.6321e-08
2.20723e-09
2.32094e-09
7.43277e-08
3.65971e-06
3.22881e-05
3.44979e-06
6.64235e-06
0.00734176
0.296439
0.302098
0.254851
0.852186
5.72704e-11
9.67863e-11
1.13919e-10
1.14526e-10
2.76159e-10
1.48881e-08
8.8115e-07
1.45069e-06
2.50317e-07
4.26558e-08
4.91772e-07
7.13762e-06
2.28642e-06
4.28504e-06
0.00440004
0.121294
0.239038
0.109361
0.511543
6.10923e-11
1.03673e-10
1.18042e-10
1.17514e-10
1.28135e-10
1.98385e-08
1.02438e-06
1.56638e-06
1.35172e-06
4.27337e-08
2.19213e-07
1.85116e-06
2.07711e-06
2.25976e-06
5.75804e-05
0.0504601
0.240119
0.0642772
0.062584
7.7462e-11
1.46305e-10
1.66187e-10
1.64997e-10
1.83387e-10
2.72593e-10
6.8864e-10
8.22846e-07
1.85117e-06
3.54404e-07
2.21975e-07
2.2663e-07
2.36967e-06
4.08999e-06
0.000320311
0.0311657
0.170737
0.0619311
0.0619311
1.07821e-10
2.56575e-10
2.92635e-10
1.65288e-10
4.65386e-09
1.01053e-07
2.62196e-07
7.48238e-07
1.85346e-06
1.50772e-06
2.2369e-07
2.26181e-07
3.31346e-06
9.7606e-05
0.00164442
0.0307384
0.125374
0.267574
0.0619311
1.08334e-10
3.22063e-10
3.99508e-10
2.57549e-10
5.0288e-10
4.51774e-07
1.51151e-06
1.58461e-06
1.85368e-06
1.85183e-06
2.26178e-07
3.59522e-07
3.1017e-06
9.12159e-05
0.00310392
0.157935
0.309547
0.322269
0.132577
9.41253e-11
3.41057e-10
4.65322e-10
3.62536e-10
5.33743e-10
3.49569e-07
1.42687e-06
1.85366e-06
1.85365e-06
1.85365e-06
1.73059e-06
1.16491e-06
2.38315e-06
3.87762e-05
0.00292383
0.164489
0.322269
0.322636
0.322633
7.69948e-11
3.53315e-10
5.6222e-10
5.83647e-10
5.79145e-10
6.0765e-10
1.37507e-07
1.33295e-06
1.81806e-06
7.94545e-07
7.58352e-07
8.97728e-07
5.07328e-06
7.57405e-05
0.000115121
0.000156475
0.125686
0.322632
0.322636
4.84203e-11
3.18592e-10
6.28962e-10
7.2569e-10
2.00804e-09
1.13292e-08
2.00575e-08
3.6842e-07
9.43989e-07
7.37032e-07
4.26658e-07
5.66251e-07
3.44129e-05
0.000228502
9.19085e-05
5.83667e-06
0.000140563
0.157242
0.322632
3.51728e-11
2.27169e-10
5.01524e-10
4.98928e-10
1.07249e-08
1.63944e-07
2.32057e-07
2.38577e-07
5.56074e-07
6.77726e-07
3.68661e-07
4.60621e-07
8.83689e-05
0.000234933
3.22472e-05
2.66579e-06
2.81452e-06
0.00992844
0.322492
3.92715e-11
2.30017e-10
4.63962e-10
4.50011e-10
6.79775e-09
1.53838e-07
2.63434e-07
3.73631e-07
5.29252e-07
3.1332e-07
3.24581e-07
1.07292e-06
0.000136805
0.000225516
4.50424e-06
2.51762e-06
2.52911e-06
0.0065537
0.268059
2.61771e-11
1.73703e-10
3.89584e-10
4.0739e-10
5.80899e-09
1.62601e-08
9.01423e-08
3.51499e-07
3.02891e-07
5.82375e-08
3.59025e-07
6.64197e-06
9.06924e-05
3.88419e-05
2.23369e-06
2.05078e-06
2.61102e-06
0.00804176
0.151071
6.85345e-12
6.01902e-11
1.8275e-10
2.41409e-10
3.86748e-09
1.24274e-08
4.40846e-08
9.44103e-08
4.79253e-08
3.82552e-08
6.26149e-07
5.25957e-06
7.00077e-06
2.02901e-06
1.32334e-06
1.40547e-06
3.2186e-06
0.100356
0.221409
1.15729e-12
1.26306e-11
3.38843e-11
2.84632e-10
6.22755e-09
1.34496e-08
1.35128e-08
1.35279e-08
3.41818e-08
3.34936e-08
1.82959e-07
1.96556e-07
3.52447e-07
1.03361e-06
1.10728e-06
2.48203e-06
1.4506e-05
0.164895
0.221409
2.13717e-13
5.20388e-12
1.59624e-11
1.49711e-10
3.84366e-09
5.92084e-09
6.3266e-09
1.14367e-06
3.38273e-06
2.41367e-06
1.96556e-07
1.2971e-05
3.75097e-05
1.65119e-05
2.16332e-06
0.00111351
0.000925059
0.0582306
0.221409
2.2773e-14
1.20434e-12
1.24742e-11
4.57053e-11
7.22512e-10
2.76828e-10
4.43772e-08
3.50809e-07
3.06522e-06
3.11753e-06
7.79956e-05
0.000163117
0.000161699
1.56821e-05
1.4049e-05
0.0109464
0.00704649
0.00122972
0.210749
3.33029e-15
1.42289e-13
6.8906e-12
3.57397e-11
4.97262e-11
2.25864e-12
6.31773e-08
1.49768e-07
2.37068e-07
4.76401e-08
5.77772e-05
5.86538e-05
1.47586e-06
2.10687e-06
0.00684897
0.0125898
0.0109846
0.000895182
0.194858
7.1993e-16
2.28911e-14
2.38251e-12
1.11652e-11
5.889e-12
2.14889e-12
1.29388e-08
8.01615e-08
6.20059e-08
4.56177e-08
1.20784e-06
1.55786e-07
2.0037e-10
3.72183e-05
0.0125661
0.0125898
0.00855493
0.000646197
0.166952
1.28186e-16
3.75038e-15
3.1241e-13
6.37721e-13
2.99136e-12
2.1396e-12
2.14889e-12
4.37338e-09
8.45521e-09
9.70094e-09
5.59588e-10
3.5682e-09
4.08594e-13
0.00374717
0.0124958
0.0125898
0.00516892
0.000537822
0.173902
1.64299e-17
3.27869e-16
6.95028e-15
1.04478e-14
9.7678e-13
1.75654e-13
1.70128e-10
3.51731e-10
3.28026e-10
2.47288e-10
4.24618e-11
4.08594e-13
2.27139e-14
0.002725
0.0121596
0.00928407
0.000752214
0.000528635
0.180627
1.4696e-18
2.35508e-17
1.44214e-16
1.2126e-15
8.38255e-14
2.8876e-17
5.17099e-11
1.20239e-10
1.103e-10
6.32816e-11
1.34195e-11
3.14348e-13
1.12686e-33
0.0015611
0.0117525
0.00409543
0.000530168
0.000532428
0.180598
7.87318e-20
1.12e-18
8.60876e-18
2.51576e-16
4.82101e-16
2.4618e-17
6.28474e-14
2.86683e-24
1.79385e-26
1.77762e-28
0
-1.04672e-21
-6.7572e-22
0.00337983
0.0114108
0.00897508
0.000627282
0.000526761
0.148535
1.67297e-21
2.1909e-20
2.91923e-19
1.01426e-17
3.46844e-18
4.90058e-19
5.82852e-25
1.02134e-27
2.64144e-30
1.0078e-32
5.08904e-35
0
0
0.000800316
0.0111199
0.011099
0.00156437
0.000524934
0.0672853
3.88672e-24
4.4462e-23
7.21868e-22
1.77486e-20
1.23894e-21
5.84933e-23
2.02353e-26
8.00247e-35
3.41157e-37
1.9212e-39
6.71245e-51
0
-8.19391e-55
0
0.0039571
0.0104268
0.00354304
0.000532891
0.0867345
)
;

boundaryField
{
    leftWall
    {
        type            zeroGradient;
    }
    rightWall
    {
        type            zeroGradient;
    }
    lowerWall
    {
        type            zeroGradient;
    }
    atmosphere
    {
        type            inletOutlet;
        inletValue      uniform 0;
        value           nonuniform List<scalar> 
46
(
1.86754e-77
1.03165e-77
1.03165e-77
2.3858e-77
7.64321e-75
3.83601e-72
3.30873e-69
1.95578e-66
9.14324e-64
1.99149e-61
4.60346e-59
1.65451e-56
6.05105e-54
1.49319e-51
7.15643e-49
1.41109e-46
3.55898e-44
7.41272e-42
1.21677e-39
1.54414e-37
2.41014e-35
4.06223e-33
3.68004e-31
1.44217e-29
2.69049e-28
1.13493e-26
3.98681e-25
3.88672e-24
4.4462e-23
7.21868e-22
1.77486e-20
1.23894e-21
5.84933e-23
0
0
0
0
0
0
0
0
0
0
0.00354304
0.000532891
0.0867345
)
;
    }
    defaultFaces
    {
        type            empty;
    }
}


// ************************************************************************* //
