/*--------------------------------*- C++ -*----------------------------------*\
  =========                 |
  \\      /  F ield         | OpenFOAM: The Open Source CFD Toolbox
   \\    /   O peration     | Website:  https://openfoam.org
    \\  /    A nd           | Version:  13
     \\/     M anipulation  |
\*---------------------------------------------------------------------------*/
FoamFile
{
    format      ascii;
    class       surfaceScalarField;
    location    "0.5";
    object      alphaPhi.water;
}
// * * * * * * * * * * * * * * * * * * * * * * * * * * * * * * * * * * * * * //

dimensions      [0 3 -1 0 0 0 0];

internalField   nonuniform List<scalar> 
4432
(
-3.78999e-06
3.78999e-06
-5.25167e-06
1.46168e-06
-3.2295e-06
-2.02217e-06
1.03048e-06
-4.25998e-06
6.52274e-06
-5.49226e-06
1.21123e-05
-5.58961e-06
1.69038e-05
-4.79149e-06
2.04827e-05
-3.57882e-06
2.28556e-05
-2.37296e-06
2.42227e-05
-1.3671e-06
2.48034e-05
-5.80654e-07
2.47308e-05
7.26028e-08
2.40188e-05
7.11981e-07
2.26166e-05
1.40219e-06
2.02825e-05
2.33406e-06
1.65763e-05
3.70629e-06
1.10077e-05
5.56859e-06
3.74927e-06
7.2584e-06
-2.59822e-06
6.59737e-06
-8.00935e-06
5.35742e-06
-1.49448e-05
6.88145e-06
-1.56054e-05
-7.32766e-07
-1.56068e-05
-4.06772e-06
7.85771e-06
-4.92435e-06
2.3183e-06
-2.74019e-06
-4.20633e-06
1.49928e-06
-8.49945e-06
6.91759e-06
-1.09106e-05
1.24356e-05
-1.11076e-05
1.7146e-05
-9.50191e-06
2.0642e-05
-7.07479e-06
2.29563e-05
-4.68728e-06
2.43118e-05
-2.72258e-06
2.49481e-05
-1.21701e-06
2.51031e-05
-8.23269e-08
2.49846e-05
8.30409e-07
2.46878e-05
1.69908e-06
2.42396e-05
2.78218e-06
2.34418e-05
4.5041e-06
2.15583e-05
7.45211e-06
1.70615e-05
1.17552e-05
8.691e-06
1.49679e-05
-2.39188e-06
1.70545e-05
-1.01324e-05
1.45558e-05
-9.15813e-06
-2.19828e-06
-2.47681e-05
-3.45068e-06
1.13084e-05
-4.00749e-06
2.8751e-06
-1.85814e-06
-6.35567e-06
2.12555e-06
-1.24831e-05
7.30756e-06
-1.60926e-05
1.26669e-05
-1.6467e-05
1.72113e-05
-1.40463e-05
2.05148e-05
-1.03783e-05
2.26616e-05
-6.83403e-06
2.39212e-05
-3.98219e-06
2.45404e-05
-1.83625e-06
2.46858e-05
-2.27749e-07
2.44731e-05
1.04313e-06
2.39859e-05
2.1863e-06
2.33332e-05
3.43485e-06
2.2718e-05
5.11926e-06
2.24171e-05
7.75305e-06
2.18276e-05
1.23447e-05
1.85362e-05
1.82593e-05
1.11068e-05
2.44828e-05
1.9111e-06
2.36749e-05
-2.00665e-07
-1.20588e-08
-2.49725e-05
-2.55156e-06
1.386e-05
-2.6861e-06
3.00964e-06
-6.75405e-07
-8.36637e-06
2.80037e-06
-1.59589e-05
7.60103e-06
-2.08933e-05
1.27555e-05
-2.16214e-05
1.71202e-05
-1.84109e-05
2.02183e-05
-1.34765e-05
2.21879e-05
-8.80356e-06
2.33536e-05
-5.14793e-06
2.39776e-05
-2.46022e-06
2.42144e-05
-4.64587e-07
2.41494e-05
1.10818e-06
2.38235e-05
2.51213e-06
2.32671e-05
3.99133e-06
2.25677e-05
5.81859e-06
2.20417e-05
8.27906e-06
2.23044e-05
1.2082e-05
2.27805e-05
1.77832e-05
2.16188e-05
2.56446e-05
1.69129e-05
2.88091e-05
9.55068e-06
8.10444e-06
-1.5423e-05
-1.36067e-06
1.52206e-05
-8.08082e-07
2.45706e-06
1.00254e-06
-1.0177e-05
4.02187e-06
-1.89782e-05
8.31437e-06
-2.51858e-05
1.30263e-05
-2.63334e-05
1.69953e-05
-2.23799e-05
1.97704e-05
-1.62516e-05
2.15423e-05
-1.05755e-05
2.26483e-05
-6.25394e-06
2.33266e-05
-3.13853e-06
2.36988e-05
-8.36765e-07
2.38242e-05
9.82827e-07
2.37279e-05
2.60844e-06
2.34316e-05
4.28759e-06
2.29862e-05
6.26404e-06
2.25071e-05
8.75816e-06
2.24797e-05
1.21094e-05
2.36445e-05
1.66184e-05
2.56999e-05
2.35892e-05
2.52842e-05
2.92273e-05
1.61911e-05
1.72197e-05
7.6591e-07
1.67803e-07
1.50528e-05
1.94612e-06
6.78736e-07
4.07137e-06
-1.23022e-05
7.06077e-06
-2.19676e-05
1.06918e-05
-2.88168e-05
1.43701e-05
-3.00117e-05
1.73691e-05
-2.53789e-05
1.94566e-05
-1.83391e-05
2.08651e-05
-1.1984e-05
2.1878e-05
-7.2668e-06
2.26454e-05
-3.90593e-06
2.32089e-05
-1.40023e-06
2.35738e-05
6.17855e-07
2.37187e-05
2.46363e-06
2.36624e-05
4.34386e-06
2.34728e-05
6.4536e-06
2.32767e-05
8.95428e-06
2.32351e-05
1.2151e-05
2.38735e-05
1.59801e-05
2.61292e-05
2.13334e-05
2.73095e-05
2.8047e-05
1.92489e-05
2.52804e-05
2.00106e-05
2.47839e-06
1.25744e-05
5.85497e-06
-2.69785e-06
9.5184e-06
-1.59657e-05
1.29918e-05
-2.5441e-05
1.55338e-05
-3.1359e-05
1.73219e-05
-3.17997e-05
1.86975e-05
-2.67544e-05
1.97512e-05
-1.93926e-05
2.06035e-05
-1.28362e-05
2.13806e-05
-8.04388e-06
2.21275e-05
-4.65278e-06
2.28045e-05
-2.07722e-06
2.33956e-05
2.67465e-08
2.37992e-05
2.05999e-06
2.3995e-05
4.14804e-06
2.40295e-05
6.41913e-06
2.40607e-05
8.92312e-06
2.42131e-05
1.19986e-05
2.45399e-05
1.56532e-05
2.59252e-05
1.99481e-05
2.72302e-05
2.6742e-05
2.17361e-05
3.07744e-05
4.17426e-05
4.79852e-06
7.77591e-06
1.10216e-05
-8.92092e-06
1.73251e-05
-2.22684e-05
2.10568e-05
-2.91704e-05
2.16305e-05
-3.19318e-05
2.08821e-05
-3.10411e-05
2.04806e-05
-2.63451e-05
2.06505e-05
-1.95591e-05
2.11331e-05
-1.33175e-05
2.17443e-05
-8.65444e-06
2.24029e-05
-5.31099e-06
2.30387e-05
-2.71282e-06
2.35027e-05
-4.37165e-07
2.39722e-05
1.5905e-06
2.42959e-05
3.82433e-06
2.45457e-05
6.16927e-06
2.48353e-05
8.63352e-06
2.52291e-05
1.16049e-05
2.56662e-05
1.5216e-05
2.64965e-05
1.91179e-05
2.73424e-05
2.58961e-05
2.30628e-05
3.5054e-05
6.48016e-05
7.16068e-07
-1.17791e-06
7.01107e-07
-4.0686e-07
6.52553e-07
-8.23049e-08
5.80963e-07
-4.22559e-09
2.91459e-07
2.48061e-07
1.17928e-08
2.53424e-07
1.54347e-10
1.0327e-08
2.94741e-12
3.98095e-11
6.91435e-11
-8.50731e-11
3.49021e-11
1.17144e-11
-9.3202e-08
6.7829e-08
-1.37173e-06
1.16374e-06
-5.53798e-06
1.80191e-06
-4.60981e-05
8.84815e-07
-6.55318e-05
-5.9806e-06
-8.30934e-05
-1.76622e-05
-8.72829e-05
-4.56838e-05
-3.89093e-05
-7.26517e-05
-5.73351e-05
1.47631e-06
-7.60585e-06
1.64669e-06
-4.24528e-06
9.99946e-08
-4.61106e-07
9.77743e-08
-1.73905e-07
3.90978e-07
-8.4837e-08
2.53184e-07
5.36987e-07
4.85862e-09
3.10399e-07
1.04997e-09
5.12563e-09
1.70901e-09
-8.80065e-10
-4.48334e-08
4.73717e-08
-9.32533e-07
7.954e-07
-6.67739e-06
2.23869e-06
-5.34046e-06
8.05009e-07
-2.18822e-06
-2.53976e-07
-7.42921e-06
-6.8683e-07
-2.45564e-05
-2.73829e-06
-5.39116e-05
-1.54449e-05
-3.88878e-05
-8.29742e-05
-9.55227e-05
4.73539e-06
-6.92841e-05
0
-2.76475e-07
4.53581e-08
-4.82139e-08
1.45629e-07
-7.67157e-09
3.00611e-07
-3.55934e-09
7.09332e-07
2.0985e-07
4.01129e-08
6.61084e-07
9.3883e-10
3.23057e-08
-2.38306e-09
2.34597e-09
-3.1535e-07
3.65008e-07
-2.01408e-06
1.69082e-06
-1.31773e-06
2.33896e-07
-1.17078e-07
1.37149e-07
-3.46022e-07
-2.61742e-08
-8.54837e-07
-1.26808e-07
-2.82571e-06
-7.11207e-07
-1.24938e-05
-5.68676e-06
-3.88142e-05
-6.48675e-05
-0.000133723
-9.86951e-07
-7.45644e-05
-4.08524e-09
-1.26432e-06
2.44237e-09
-5.28984e-08
1.88635e-09
-3.03747e-09
2.63449e-09
-1.08565e-09
1.81587e-07
0
1.50513e-07
3.76978e-07
-8.99878e-09
1.22401e-07
-1.61966e-07
1.30697e-07
-1.25386e-06
1.37807e-06
-1.5005e-06
2.09571e-06
-1.79732e-07
5.69109e-08
-4.10756e-08
2.52723e-09
-4.86808e-08
-7.19754e-09
-1.52216e-07
-2.3616e-08
-6.7268e-07
-1.76281e-07
-4.3694e-06
-1.96697e-06
-3.09235e-05
-3.93259e-05
-0.000163873
-5.00733e-06
-5.78838e-05
-1.31355e-07
-6.18385e-06
0
-1.83063e-07
1.15644e-09
-2.45158e-09
3.4025e-09
-9.61286e-10
4.39353e-08
0
3.35596e-08
4.82274e-08
-7.7221e-08
1.86968e-07
-9.01197e-07
1.05759e-06
-1.29456e-06
1.94797e-06
-9.8401e-07
1.96865e-06
-1.98664e-08
2.7543e-07
-1.16406e-08
-2.1786e-09
-4.66713e-09
-1.11452e-08
-2.5299e-08
-2.17823e-09
-1.84532e-07
-2.17059e-08
-1.65844e-06
-5.10536e-07
-2.11608e-05
-1.87513e-05
-0.000182992
-7.11806e-06
-5.99273e-05
-3.97019e-07
-2.58739e-05
-7.29404e-09
-5.77127e-07
1.27499e-10
-9.78734e-09
1.22241e-09
-1.98472e-10
2.6822e-09
0
-6.76324e-09
3.7024e-09
-2.40789e-07
2.23348e-07
-1.14078e-06
1.6567e-06
-1.3153e-06
2.26461e-06
-1.12051e-06
1.95472e-06
-2.55353e-08
3.06819e-07
-1.24963e-08
-6.99941e-09
-6.25921e-10
-1.05679e-08
-1.25671e-09
-1.15137e-09
-2.28534e-08
-2.8194e-10
-5.32423e-07
-1.91031e-08
-1.18638e-05
-7.08029e-06
-0.000107045
-5.92329e-06
-6.58559e-05
-3.73957e-06
-0.000114585
-9.28636e-08
-4.25913e-06
-9.18873e-12
-1.07168e-07
-2.04925e-10
-3.7919e-10
-5.76154e-10
5.53099e-10
-5.49889e-10
4.29894e-09
-2.38392e-07
1.89308e-07
-9.97852e-07
1.26202e-06
-1.06139e-06
2.42518e-06
-6.11268e-07
1.64481e-06
-3.94925e-08
1.1717e-07
-4.23986e-09
-3.34899e-08
-1.11358e-10
-6.84642e-09
7.95978e-12
-5.12008e-10
3.51873e-11
-2.44291e-10
-2.0389e-08
-1.31618e-10
-3.43888e-06
-3.97518e-06
-8.59648e-05
1.07927e-05
-7.66602e-05
-1.49079e-06
-0.000121078
-4.23665e-07
-4.13747e-05
-1.80408e-09
-5.30567e-07
-1.5306e-10
-2.43385e-09
-6.21243e-10
5.16275e-10
-1.18277e-09
3.7984e-09
-4.48786e-08
5.8495e-08
-5.81688e-07
2.37189e-07
-6.45939e-07
2.59793e-06
-1.64407e-07
1.17969e-06
-3.8611e-09
1.76003e-09
0
-2.24154e-08
0
-4.08359e-09
1.0652e-11
-4.13518e-10
5.86038e-11
-1.5214e-10
1.62487e-10
-1.21567e-10
-6.04925e-06
-4.64813e-09
-0.000224207
1.84169e-05
-1.06403e-05
4.19087e-05
-3.24136e-05
5.70514e-05
-3.25716e-05
5.79391e-05
-2.1151e-05
5.24386e-05
-1.82695e-05
4.64371e-05
-1.96152e-05
4.29727e-05
-1.99704e-05
4.29525e-05
-1.80762e-05
4.50815e-05
-1.51124e-05
4.7958e-05
-1.1505e-05
5.07299e-05
-8.06115e-06
5.28666e-05
-4.83083e-06
5.4215e-05
-1.77177e-06
5.45187e-05
1.27178e-06
5.43364e-05
4.00673e-06
5.41386e-05
6.36726e-06
5.47226e-05
8.04953e-06
5.59444e-05
1.03831e-05
5.78161e-05
1.33443e-05
6.08767e-05
1.60573e-05
6.71007e-05
1.96722e-05
7.97677e-05
2.2387e-05
3.40284e-05
0.000110507
2.2604e-05
-1.61906e-05
2.33467e-05
-3.82777e-06
1.57904e-05
-5.76366e-08
1.28415e-05
-3.32403e-14
1.3115e-05
-1.23484e-12
1.26257e-05
-4.77048e-11
1.15914e-05
-1.70164e-09
1.31207e-05
-4.68809e-08
1.90546e-05
-1.03563e-06
2.79595e-05
-5.2102e-06
3.7869e-05
-5.52205e-06
4.72615e-05
-4.96738e-06
5.45166e-05
-3.27706e-06
5.87336e-05
-4.85961e-07
5.92286e-05
3.51227e-06
5.85584e-05
7.03749e-06
5.91406e-05
7.46736e-06
5.98469e-05
9.67675e-06
6.15875e-05
1.16038e-05
6.57533e-05
1.18915e-05
7.31476e-05
1.22779e-05
8.38617e-05
1.16729e-05
1.20697e-05
0.000105818
3.8854e-06
-8.29911e-22
5.76366e-08
-8.4982e-20
-3.09412e-16
-6.21839e-18
-3.35248e-14
2.67997e-18
-1.26836e-12
-7.76234e-19
-4.89731e-11
-6.20572e-18
-1.75062e-09
-3.09606e-18
-4.86316e-08
-5.71534e-16
-1.08426e-06
-3.48199e-14
-9.94411e-07
-8.96318e-13
-7.95558e-07
-1.36598e-11
8.82205e-07
-2.83394e-10
5.72427e-06
-5.20733e-09
1.47969e-05
-8.28662e-08
3.01118e-05
-7.17327e-07
5.02689e-05
-7.60753e-07
6.31471e-05
1.06338e-06
6.39163e-05
8.90758e-06
6.2836e-05
1.2684e-05
6.50912e-05
9.63632e-06
6.92618e-05
8.10731e-06
7.48626e-05
6.07206e-06
5.89677e-07
8.63426e-05
-7.94845e-22
-8.39695e-23
-8.44751e-20
-1.30272e-21
-6.29794e-18
3.46145e-24
-1.20764e-18
4.07535e-20
-9.38794e-19
-2.91733e-18
-1.14071e-18
-7.88138e-18
-5.48174e-18
-3.38087e-19
-5.18197e-16
-5.96561e-17
-2.01998e-14
-1.51377e-14
-4.95837e-13
-4.20701e-13
-1.33332e-11
-8.42948e-13
-2.96731e-10
-2.36593e-13
-5.50209e-09
-2.21883e-12
-8.83004e-08
-6.64147e-11
-8.03726e-07
-1.85606e-09
-4.18198e-07
-2.87446e-08
4.16598e-06
-3.79021e-07
2.03872e-05
-1.16944e-06
4.45273e-05
-2.61706e-07
6.61775e-05
-8.63242e-07
7.27398e-05
1.54501e-06
7.74561e-05
1.35627e-06
-3.84295e-06
8.18887e-05
-1.00068e-22
-2.18729e-23
-1.19505e-21
-2.56648e-22
-1.40877e-20
-3.20543e-21
-3.2742e-19
-1.06973e-19
-5.6935e-18
-1.57772e-17
-1.20485e-17
-3.01983e-17
-1.02506e-17
-4.24114e-17
0
-1.25444e-16
-3.93304e-14
-1.45866e-14
-7.34505e-13
-1.43686e-12
-4.42467e-13
-7.10807e-12
-6.93357e-13
-6.49177e-14
-2.9334e-12
2.54364e-18
-6.93924e-11
9.76792e-16
-1.25797e-09
-6.65939e-10
-2.52402e-08
-4.71736e-09
-3.97721e-07
-5.59162e-09
-5.36917e-07
-6.1109e-09
1.90651e-07
-9.3615e-09
4.09585e-06
-6.96893e-08
1.52876e-05
-1.22325e-06
3.96148e-05
-2.91752e-06
-6.47892e-06
7.21792e-05
-3.78526e-23
-9.10788e-24
-2.88861e-22
-1.78095e-21
-1.58147e-20
-1.65688e-19
-6.78109e-18
-4.21676e-18
-4.95106e-17
-3.93121e-17
-9.13483e-17
-8.15159e-17
-9.9404e-17
-9.85837e-17
0
-3.02402e-16
-1.55537e-13
-1.11048e-13
-7.11385e-12
-5.16746e-12
-3.92721e-12
-9.14108e-12
-6.6805e-14
-4.61463e-12
4.44285e-13
8.0613e-13
0
1.75352e-12
-7.52237e-10
-2.59792e-11
-1.59716e-09
-3.48656e-09
-2.14644e-09
-5.07411e-09
-2.57062e-09
-5.34944e-09
-4.94364e-09
-6.80062e-09
-6.95967e-08
-4.4396e-09
-1.07233e-07
-4.70725e-09
2.21255e-08
-4.28562e-09
-2.21885e-09
1.73008e-06
-6.52261e-24
-1.43459e-24
-3.75167e-21
-6.09935e-22
-5.42011e-19
-1.15487e-19
-1.38324e-17
-4.47326e-18
-8.07666e-17
-3.82247e-17
-1.25895e-16
-9.99923e-17
-9.2619e-17
-1.19829e-16
-2.55355e-16
-1.32476e-16
-9.68591e-13
-5.72345e-15
-7.24907e-12
-4.33712e-12
-7.82251e-12
-7.414e-12
-5.29604e-12
-5.98746e-12
2.14494e-13
-7.20049e-13
4.68426e-12
7.2067e-13
1.31707e-11
-5.2152e-12
6.45574e-10
-8.09814e-11
3.61177e-10
-2.04406e-11
8.64971e-10
-6.23833e-14
1.73079e-09
-9.74658e-15
5.0735e-09
-7.78967e-14
4.2886e-10
-6.33422e-10
5.29355e-10
-4.6726e-09
-2.07578e-09
3.02974e-10
-9.75077e-25
-5.61529e-26
-6.97632e-22
-1.01481e-22
-2.59004e-19
-3.22012e-20
-1.05661e-17
-2.53335e-18
-6.58528e-17
-3.28391e-17
-1.11355e-16
-1.02022e-16
-1.02501e-16
-1.2614e-16
-1.04162e-16
-1.32622e-16
-4.53986e-15
-9.86666e-16
-3.19481e-12
-8.39236e-16
-5.6781e-12
-2.11937e-15
-1.45286e-12
-1.29986e-14
-3.81862e-14
-1.45296e-13
3.38585e-12
-2.94085e-12
8.70952e-12
-2.20559e-11
2.04176e-11
-2.1204e-11
6.19663e-14
-8.37956e-14
2.19231e-16
-5.97953e-16
1.80092e-16
-9.94051e-15
1.58109e-13
-1.87054e-12
9.36613e-10
-2.04066e-09
4.35922e-09
-1.198e-08
-3.34205e-09
4.70976e-09
-1.09582e-25
1.51099e-26
-8.67326e-23
-1.60951e-23
-5.91423e-20
-7.56964e-21
-4.31896e-18
-8.30082e-19
-3.9564e-17
-1.37125e-17
-6.86079e-17
-6.01002e-17
-6.8489e-17
-1.03951e-16
-2.9565e-16
-1.3035e-16
-2.79882e-16
-3.8281e-16
-3.67932e-16
-1.39741e-15
-5.23562e-16
-2.61599e-15
-8.88668e-15
-5.29936e-15
-4.16269e-14
-4.91763e-14
3.08383e-12
-9.28413e-12
1.63983e-11
-2.47245e-11
7.33953e-14
-4.90928e-12
2.57436e-16
-1.06194e-14
2.98748e-17
-3.36747e-16
5.51515e-14
-8.79314e-14
6.58431e-11
-6.76767e-11
2.98982e-09
-3.09384e-09
8.2489e-09
-2.65791e-08
-1.8444e-08
6.31107e-09
-1.43999e-26
1.26515e-26
-1.27002e-23
-3.25441e-24
-1.23643e-20
-1.8118e-21
-9.85648e-19
-2.5351e-19
-1.08813e-17
-4.1801e-18
-3.02023e-17
-1.9471e-17
-3.4843e-17
-4.537e-17
-5.89538e-17
-7.00885e-17
-1.26162e-16
-4.4764e-16
-1.90666e-16
-5.85229e-15
-2.68733e-16
-1.21385e-14
0
-2.71761e-14
3.60627e-14
-1.27104e-13
3.59215e-12
-1.06598e-14
4.10162e-12
-9.05215e-16
1.00022e-14
-6.75723e-16
0
-4.5485e-16
0
-6.97606e-17
-8.77059e-14
-1.95907e-16
0
-2.60415e-13
-2.10582e-14
-4.12986e-11
-2.18099e-09
-2.39226e-09
-1.99595e-08
-8.87427e-11
-4.25336e-27
1.37652e-26
-2.7302e-24
-5.48056e-25
-2.95242e-21
-3.23999e-22
-2.36169e-19
-6.15859e-20
-2.27895e-18
-1.0571e-18
-7.77266e-18
-4.8074e-18
-1.03228e-17
-1.49085e-17
-1.79977e-17
-4.03146e-17
-2.65813e-16
-1.70693e-16
1.09807e-17
-4.56134e-15
9.2977e-16
-1.613e-14
1.95101e-15
-4.3964e-14
9.14695e-15
-4.45666e-14
3.03816e-17
-1.46868e-15
1.84963e-17
-8.01101e-16
-4.46171e-18
-5.40813e-16
-6.33677e-18
-3.41021e-16
-8.35067e-18
-5.79315e-17
-1.65626e-16
-3.28333e-17
-2.56777e-13
-3.74646e-15
-4.11122e-11
-4.3453e-13
-2.40077e-09
-3.15893e-11
-1.70384e-09
-6.83938e-09
-2.44888e-27
1.49902e-26
-5.16795e-25
-5.14031e-26
-5.38796e-22
-4.771e-23
-5.00895e-20
-1.13303e-20
-4.07227e-19
-2.11881e-19
-1.5688e-18
-1.02881e-18
-4.40518e-18
-4.71479e-18
-7.77455e-18
-1.9121e-17
-9.7214e-17
-3.45092e-17
-5.01376e-16
-6.65613e-16
-1.21875e-15
-1.04477e-14
-9.10814e-16
-3.30355e-14
-1.60234e-16
-4.57909e-14
-5.08252e-17
-6.09038e-15
-3.17279e-17
-1.92039e-15
-5.05569e-17
-4.82104e-16
-1.71158e-17
-1.62623e-16
-7.22001e-18
-4.55892e-17
-1.49614e-17
-2.46997e-17
-3.72775e-15
-3.12785e-17
-4.38188e-13
-7.22105e-17
-3.20268e-11
-6.78139e-16
-2.50547e-14
-1.73584e-09
-8.96034e-28
1.35333e-26
-4.43247e-26
-6.70362e-27
-7.76796e-23
-7.30292e-24
-8.287e-21
-1.76057e-21
-6.44396e-20
-3.3849e-20
-3.40544e-19
-1.65016e-19
-2.47734e-18
-1.02753e-18
-4.08294e-18
-7.34126e-18
-1.09894e-17
-2.17439e-17
-2.78209e-16
-1.21012e-16
-5.03435e-15
-1.96249e-15
-5.86167e-15
-1.00159e-14
-2.00173e-15
-1.31787e-14
-6.44502e-16
-5.76638e-15
-1.8567e-16
-1.65659e-15
-4.9108e-17
-1.96918e-16
-1.78126e-17
-4.92701e-17
-9.09891e-18
-2.5783e-17
-1.31686e-17
-2.02489e-17
-1.77572e-17
-3.90778e-17
-3.62992e-17
-6.60083e-17
-6.4068e-16
-8.46389e-17
-4.74546e-16
-2.51695e-14
-1.33711e-28
1.12147e-27
-5.24878e-27
-1.01291e-27
-1.08506e-23
-1.22425e-24
-1.23936e-21
-2.22582e-22
-8.8797e-21
-4.30959e-21
-5.06934e-20
-2.14232e-20
-5.89086e-19
-1.88749e-19
-2.37973e-18
-2.06543e-18
-7.63638e-18
-1.3017e-17
-9.60822e-17
-6.94035e-17
-9.74126e-16
-1.76591e-16
-1.88043e-15
-2.4492e-16
-2.09184e-15
-1.36552e-16
-7.84004e-16
-6.35612e-16
-7.75124e-17
-2.75406e-16
-1.77275e-17
-2.38511e-17
-9.06477e-18
-5.66419e-18
-9.43658e-18
-3.20325e-18
-1.74513e-17
-7.8971e-18
-3.95925e-17
-3.28024e-17
-6.48948e-17
-8.07057e-17
-8.69627e-17
-1.78567e-16
-5.49347e-16
-1.41509e-16
-1.2868e-29
5.58935e-29
-6.8777e-28
-1.77583e-28
-1.35156e-24
-2.31617e-25
-1.53517e-22
-2.22219e-23
-1.04002e-21
-4.2694e-22
-7.01305e-21
-2.26772e-21
-1.02478e-19
-3.25326e-20
-1.12842e-18
-5.74467e-19
-1.28974e-17
-6.00262e-18
-3.65773e-17
-2.05672e-17
-3.4745e-17
-1.34144e-17
-9.75176e-19
-1.82684e-18
-1.35321e-16
-1.68425e-18
-1.0558e-16
-1.84404e-18
-1.14488e-17
-3.99286e-18
-2.57443e-18
-1.63892e-18
-1.11238e-18
-7.94139e-19
-1.57485e-18
-3.60463e-19
-1.1031e-17
-3.3872e-19
-4.37029e-17
-2.35276e-18
-1.07202e-16
-2.06497e-17
-2.76207e-16
-1.11765e-16
-3.92802e-16
-2.15941e-15
-1.26004e-30
4.42786e-30
-1.22692e-28
-3.33364e-29
-1.48434e-25
-4.08192e-26
-1.49006e-23
-1.75041e-24
-9.89507e-23
-3.17258e-23
-8.49664e-22
-1.9572e-22
-2.12978e-20
-5.79975e-21
-6.76057e-19
-1.13484e-19
-5.7209e-18
-7.80628e-19
-5.23634e-18
-1.84699e-18
-8.71323e-19
-2.44703e-18
-9.4305e-19
-2.0116e-18
-4.23114e-19
-1.68091e-18
-1.21802e-18
-6.67973e-19
-8.08438e-19
-2.12509e-19
-4.45825e-19
-1.38971e-19
-1.76006e-19
-8.3782e-20
-1.76729e-19
-4.98263e-20
-3.42433e-19
-7.77503e-20
-3.78812e-18
-7.82252e-19
-3.79604e-17
-6.4596e-18
-2.4721e-16
-3.69315e-17
-1.73384e-16
-1.13713e-15
-1.0969e-31
3.29994e-31
-4.66427e-29
-8.80726e-30
-1.50178e-26
-5.33433e-27
-1.06017e-24
-1.11335e-25
-7.34062e-24
-1.68991e-24
-1.17792e-22
-1.41383e-23
-6.13115e-21
-7.28833e-22
-1.1157e-19
-1.25417e-20
-4.4732e-19
-8.43828e-20
-8.9089e-19
-3.29639e-19
-1.2637e-18
-9.83533e-19
-1.11597e-18
-1.09635e-18
-7.01094e-19
-9.06169e-19
-1.27717e-19
-2.98536e-19
-7.91147e-20
-3.70897e-20
-5.2394e-20
-1.04101e-20
-2.80812e-20
-6.10906e-21
-3.41025e-20
-5.56002e-21
-1.34782e-19
-2.24703e-20
-1.69254e-18
-2.53913e-19
-1.40169e-17
-2.34546e-18
-9.31436e-17
-1.34402e-17
-5.44571e-17
-6.70416e-16
-7.30994e-33
1.87677e-32
-1.23967e-29
-1.28354e-30
-1.42968e-27
-4.70051e-28
-5.18434e-26
-6.00337e-27
-4.23512e-25
-5.9684e-26
-1.52463e-23
-9.7403e-25
-7.45401e-22
-6.92979e-23
-9.66087e-21
-9.881e-22
-5.79285e-20
-7.70852e-21
-3.18007e-19
-5.59753e-20
-8.33766e-19
-1.63538e-19
-6.6081e-19
-2.23723e-19
-2.62371e-19
-7.66634e-20
-3.48815e-20
-2.60299e-20
-8.26446e-21
-5.61901e-21
-4.12053e-21
-1.33526e-21
-3.91404e-21
-7.00747e-22
-5.62018e-21
-7.48789e-22
-4.67562e-20
-5.28767e-21
-7.1701e-19
-7.24067e-20
-7.14361e-18
-7.76692e-19
-4.30269e-17
-4.7448e-18
-1.61622e-17
-2.35792e-16
-4.02258e-34
7.62562e-34
-1.80159e-30
-8.10537e-32
-1.29191e-28
-2.62296e-29
-1.77087e-27
-2.67185e-28
-1.7812e-26
-1.26795e-27
-1.74912e-24
-6.24193e-26
-6.27856e-23
-5.3605e-24
-7.20994e-22
-8.83154e-23
-1.06762e-20
-9.10613e-22
-6.29249e-20
-5.76232e-21
-1.11049e-19
-1.08311e-20
-6.1951e-20
-9.61639e-21
-2.39386e-20
-5.96404e-21
-6.18847e-21
-2.53833e-21
-1.39696e-21
-7.71479e-22
-5.45743e-22
-1.75293e-22
-6.26804e-22
-7.06034e-23
-1.076e-21
-9.88071e-23
-1.38473e-20
-1.14238e-21
-2.66849e-19
-1.83259e-20
-3.42651e-18
-2.32581e-19
-2.15395e-17
-1.58259e-18
-4.98821e-18
-8.4746e-17
-1.54229e-35
2.06913e-35
-1.29606e-31
-2.07229e-33
-1.10723e-29
-7.24211e-31
-6.23006e-29
-6.75265e-30
-5.55909e-28
-1.84913e-29
-1.3099e-25
-4.81606e-27
-5.26347e-24
-4.27181e-25
-9.8114e-23
-8.04956e-24
-1.71432e-21
-6.83893e-23
-5.76397e-21
-3.03862e-22
-6.26422e-21
-4.94064e-22
-5.05581e-21
-5.28347e-22
-2.709e-21
-4.46135e-22
-1.00282e-21
-2.65053e-22
-2.38189e-22
-9.39444e-23
-6.7685e-23
-1.71272e-23
-7.7937e-23
-4.90676e-24
-2.09176e-22
-1.44362e-23
-3.77398e-21
-2.24134e-22
-9.10835e-20
-4.13538e-21
-1.5535e-18
-6.52794e-20
-1.15276e-17
-4.98245e-19
-1.35759e-18
-4.11281e-17
-3.84384e-37
6.89667e-37
-4.05677e-33
-1.30356e-37
-5.05307e-31
-1.44875e-34
-1.66402e-30
-7.20864e-33
-2.39014e-29
-5.43702e-31
-1.06476e-26
-3.12225e-28
-6.08992e-25
-2.97463e-26
-1.09488e-23
-6.39464e-25
-1.15985e-22
-4.23012e-24
-3.02724e-22
-1.46724e-23
-3.75891e-22
-3.09056e-23
-4.03722e-22
-3.65541e-23
-3.17474e-22
-3.42642e-23
-1.48132e-22
-2.25141e-23
-3.08634e-23
-8.52618e-24
-6.21807e-24
-1.66046e-24
-7.66321e-24
-5.84823e-25
-4.38568e-23
-2.49835e-24
-9.50633e-22
-4.00376e-23
-3.06494e-20
-8.38207e-22
-7.42959e-19
-1.60085e-20
-6.78764e-18
-1.0935e-19
5.4908e-20
-2.52815e-17
-2.21409e-39
3.23651e-38
-1.71925e-37
-1.02436e-38
-4.83438e-35
-1.32191e-35
-2.47712e-33
-6.7723e-34
-1.42443e-30
-3.23616e-32
-7.46222e-28
-8.96896e-30
-6.3689e-26
-1.17487e-27
-9.65579e-25
-3.07995e-26
-5.77271e-24
-2.28509e-25
-2.10833e-23
-8.15502e-25
-3.20749e-23
-1.75362e-24
-3.5905e-23
-2.05468e-24
-3.20681e-23
-1.85033e-24
-1.64268e-23
-1.15018e-24
-3.69033e-24
-4.11485e-25
-1.02548e-24
-8.93422e-26
-1.34448e-24
-4.99018e-26
-1.02436e-23
-3.49526e-25
-2.4221e-22
-5.87235e-24
-1.10112e-20
-1.22581e-22
-3.87443e-19
-1.23916e-21
-4.4679e-18
4.33918e-20
7.06351e-19
-1.83833e-17
-1.72806e-40
2.62243e-40
-1.61339e-38
-2.11091e-40
-5.86615e-36
-3.05691e-37
-2.76881e-34
-2.38193e-35
-4.29363e-32
-6.2753e-34
-2.7078e-29
-4.81855e-32
-3.08851e-27
-1.93621e-29
-5.82629e-26
-7.37927e-28
-3.80597e-25
-6.52564e-27
-1.46102e-24
-2.67498e-26
-2.24642e-24
-5.85429e-26
-2.49002e-24
-6.57923e-26
-2.14214e-24
-5.57732e-26
-1.0458e-24
-3.17152e-26
-2.3502e-25
-1.02233e-26
-1.30119e-25
-2.89313e-27
-1.90531e-25
-3.14416e-27
-2.2854e-24
-3.18202e-26
-6.69097e-23
-2.56997e-25
-4.30389e-21
1.93131e-23
-2.06138e-19
2.59498e-21
-2.90172e-18
9.23519e-20
9.47343e-19
-1.41582e-17
-1.50591e-42
1.33428e-42
-2.47746e-40
-1.50571e-42
-2.98774e-37
-1.03659e-40
-1.28488e-35
-1.34741e-39
-3.8399e-34
-9.14689e-38
-3.30923e-31
-5.08718e-35
-7.15823e-29
-3.37779e-32
-1.75459e-27
-4.252e-30
-1.47241e-26
-6.58751e-29
-6.24943e-26
-3.46968e-28
-9.41136e-26
-6.91888e-28
-1.03294e-25
-6.95492e-28
-8.53143e-26
-5.37753e-28
-3.83843e-26
-2.88626e-28
-9.66357e-27
-9.9719e-29
-1.08457e-26
-3.41332e-29
-2.82525e-26
-2.66992e-29
-5.47124e-25
4.67689e-27
-1.9946e-23
3.59704e-25
-1.6805e-21
3.06966e-23
-1.03952e-19
2.58469e-21
-1.69444e-18
8.33814e-20
8.12189e-19
-9.40475e-18
-1.41367e-44
1.27197e-44
-5.72492e-43
-8.08591e-46
-8.99801e-41
-6.67241e-44
-6.92759e-40
-4.53871e-42
-1.25712e-37
-5.48422e-40
-2.36726e-34
-2.52574e-37
-2.72691e-31
-4.72075e-35
-1.67551e-29
-6.51428e-33
-2.53798e-28
-9.51849e-32
-1.07657e-27
-4.23727e-31
-1.46459e-27
-9.03544e-31
-1.58989e-27
-1.01607e-30
-1.32745e-27
-7.23638e-31
-6.99308e-28
-2.81286e-31
-3.64467e-28
2.78041e-31
-4.84871e-28
2.01398e-30
-5.38099e-27
9.07025e-29
-1.39684e-25
4.52796e-27
-5.89246e-24
2.34076e-25
-5.85906e-22
1.73583e-23
-4.42426e-20
1.45531e-21
-7.99991e-19
4.85795e-20
4.70288e-19
-4.79751e-18
-1.01321e-47
1.27226e-46
-1.03594e-46
-1.30312e-48
-3.09355e-44
-1.72361e-45
-3.39648e-42
-1.05437e-43
-1.45702e-39
-2.28602e-42
-5.71741e-37
-1.23264e-40
-5.79616e-34
-8.2507e-38
-3.81889e-32
-1.316e-35
-4.38611e-31
-2.18188e-34
-1.97529e-30
-9.58579e-34
-4.04313e-30
-1.63618e-33
-5.06506e-30
1.78496e-34
-5.48059e-30
4.37134e-33
-5.50471e-30
1.09144e-32
-6.56617e-30
3.18076e-32
-4.21152e-29
7.84735e-31
-1.19198e-27
4.52416e-29
-3.63156e-26
2.06086e-27
-1.61444e-24
9.97038e-26
-1.73504e-22
6.85385e-24
-1.5737e-20
5.99804e-22
-3.12785e-19
2.19652e-20
2.17374e-19
-1.93148e-18
-1.17894e-50
1.02625e-48
-1.61681e-48
-1.08372e-52
-2.84108e-45
-7.22787e-50
-2.60205e-43
-2.13262e-48
-2.76208e-42
-5.91213e-47
-8.77574e-40
-3.23447e-45
-1.52048e-36
-8.85683e-43
-1.35901e-34
-2.95656e-40
-1.92575e-33
-6.14876e-39
-1.06403e-32
1.97201e-36
-3.32869e-32
2.29873e-35
-6.7052e-32
1.164e-34
-8.47344e-32
3.14992e-34
-1.07742e-31
5.92813e-34
-3.04739e-31
5.30803e-33
-7.81186e-30
3.25761e-31
-2.85023e-28
1.68821e-29
-9.40713e-27
7.58463e-28
-4.04973e-25
3.45662e-26
-4.39536e-23
2.19894e-24
-4.87787e-21
2.0576e-22
-1.11096e-19
8.69104e-21
9.07642e-20
-7.12691e-19
-3.60836e-55
8.83125e-51
-1.09879e-52
-3.46574e-54
-7.17699e-50
-1.07239e-53
-4.58818e-48
-3.73261e-52
-1.32211e-46
-7.17539e-50
-1.56351e-44
-1.24804e-48
-1.44908e-41
2.81136e-46
-2.67774e-38
2.90869e-43
-2.98096e-36
1.89132e-40
-4.88805e-35
1.88375e-38
-2.84206e-34
2.77248e-37
-5.98253e-34
1.4409e-36
-8.19826e-34
3.23975e-36
-1.52809e-33
1.80945e-35
-3.42978e-32
1.31207e-33
-1.6071e-30
9.9921e-32
-6.69083e-29
5.18902e-30
-2.2992e-27
2.327e-28
-9.08844e-26
9.92365e-27
-9.67923e-24
5.71572e-25
-1.36498e-21
5.72242e-23
-3.44368e-20
2.85378e-21
3.05411e-20
-2.01658e-19
2.32629e-53
7.64783e-53
-1.82504e-55
-3.89116e-56
-5.42916e-54
-2.99385e-56
-5.52954e-51
3.22991e-55
-6.15326e-48
8.22998e-52
-1.14101e-46
4.22213e-49
-9.23625e-45
2.2732e-48
-1.54531e-41
9.24284e-46
-5.67328e-39
4.27198e-43
-1.34933e-37
4.86282e-41
-8.2982e-37
6.16031e-40
-1.664e-36
3.2525e-39
-4.11037e-36
5.25219e-38
-9.05497e-35
3.17076e-36
-5.80134e-33
3.66405e-34
-3.19196e-31
2.44865e-32
-1.42585e-29
1.31222e-30
-4.98201e-28
5.70104e-29
-1.71655e-26
2.279e-27
-1.59885e-24
1.12251e-25
-2.87437e-22
1.12563e-23
-8.95892e-21
7.17417e-22
8.94839e-21
-5.11785e-20
5.79108e-55
6.39472e-55
-1.83008e-57
-4.30368e-58
-2.24309e-56
-2.13467e-58
-2.90755e-54
2.9528e-56
-3.04999e-52
7.61723e-55
-3.89535e-50
1.64091e-52
-1.29339e-47
2.49691e-50
-8.74842e-45
1.15389e-47
-2.87745e-42
1.21929e-45
-8.18129e-41
4.58647e-44
-4.58328e-40
1.81122e-42
-4.67743e-39
8.33183e-41
-1.80885e-37
9.09623e-39
-1.21861e-35
8.00374e-37
-9.08263e-34
6.89449e-35
-5.48374e-32
4.68148e-33
-2.50714e-30
2.54844e-31
-9.09357e-29
1.08862e-29
-2.75241e-27
4.33847e-28
-2.00758e-25
1.83146e-26
-4.48804e-23
1.67746e-24
-1.90815e-21
1.40364e-22
2.15843e-21
-1.10859e-20
8.26349e-57
5.11513e-57
-1.80925e-59
-4.06257e-60
-1.99205e-57
-6.7736e-60
-6.29576e-56
6.58918e-57
-4.45275e-54
8.29789e-56
-4.86194e-52
1.66121e-53
-2.98642e-49
2.39014e-51
-1.10624e-46
9.48978e-49
-3.54641e-45
5.72083e-47
-1.19968e-43
1.8923e-45
-4.51665e-42
1.87226e-43
-3.73688e-40
1.36628e-41
-2.14848e-38
1.90608e-39
-1.62737e-36
1.24808e-37
-1.20552e-34
1.05233e-35
-7.58325e-33
6.62378e-34
-3.50384e-31
3.82268e-32
-1.38104e-29
1.66879e-30
-3.98131e-28
7.19592e-29
-2.1441e-26
2.80803e-27
-5.3258e-24
2.12087e-25
-3.30266e-22
2.1856e-23
4.25183e-22
-2.02294e-21
9.86825e-59
3.8623e-59
-1.62148e-61
-3.04319e-62
-2.84511e-58
4.99694e-61
-6.14484e-57
8.32749e-58
-1.36498e-55
7.77409e-57
-2.3037e-53
5.11172e-55
-1.20398e-50
2.29642e-52
-2.41198e-48
2.59115e-50
-9.58736e-47
2.16578e-48
-7.88187e-45
1.87886e-46
-3.5604e-43
2.52453e-44
-2.87559e-41
1.48913e-42
-2.42176e-39
2.158e-40
-1.90936e-37
1.71796e-38
-1.28182e-35
1.16117e-36
-8.57326e-34
7.52172e-35
-4.05819e-32
4.76229e-33
-1.81279e-30
2.22302e-31
-5.59674e-29
1.10189e-29
-2.3536e-27
4.40799e-28
-5.35925e-25
2.71999e-26
-4.74233e-23
2.93191e-24
6.94018e-23
-3.11625e-22
1.01719e-60
2.70694e-61
-1.55369e-63
-2.13995e-64
-1.18133e-59
2.20642e-62
-1.5519e-58
6.8897e-60
-2.27975e-57
7.03855e-59
-1.489e-54
1.88757e-56
-1.10212e-52
2.35805e-54
-7.03584e-51
1.07061e-52
-1.11984e-48
3.55822e-50
-1.88289e-46
4.53823e-48
-1.51337e-44
8.10412e-46
-3.12505e-42
1.33371e-43
-2.92669e-40
2.84971e-41
-1.79797e-38
1.70362e-39
-1.18961e-36
1.05748e-37
-8.64734e-35
8.20727e-36
-4.30019e-33
5.45448e-34
-2.24801e-31
2.83396e-32
-8.03187e-30
1.63357e-30
-2.99092e-28
6.93183e-29
-5.4821e-26
3.82132e-27
-6.15562e-24
3.74622e-25
9.80792e-24
-4.15038e-23
9.08033e-63
1.73146e-63
-1.02734e-65
-8.91444e-67
-1.59027e-63
6.36149e-66
-1.67686e-61
2.39361e-63
-4.12133e-58
1.73795e-60
-1.45175e-56
1.54908e-57
-6.40568e-55
2.04289e-56
-5.53461e-52
5.63345e-54
-4.55455e-50
4.06403e-51
-5.27255e-48
2.81425e-49
-9.37475e-46
6.86204e-47
-3.13955e-43
1.20789e-44
-2.40534e-41
1.94904e-42
-1.3708e-39
1.13031e-40
-1.13807e-37
9.68548e-39
-8.66666e-36
9.3444e-37
-4.59034e-34
6.00185e-35
-2.83e-32
3.51712e-33
-1.14328e-30
2.2388e-31
-4.16616e-29
9.83511e-30
-6.18446e-27
5.25189e-28
-7.57612e-25
4.53177e-26
1.21378e-24
-5.14751e-24
6.97599e-65
9.95599e-66
-2.87509e-68
-1.77359e-69
-2.19766e-66
5.06215e-68
-2.13292e-63
1.5956e-64
-1.20882e-59
4.8111e-62
-4.55809e-58
2.26161e-59
-2.19309e-56
1.60686e-57
-1.23255e-53
2.80005e-55
-2.17669e-51
8.10424e-53
-5.81947e-49
2.62602e-50
-7.98337e-47
6.80621e-48
-1.29587e-44
5.11893e-46
-1.05355e-42
4.80171e-44
-9.15709e-41
5.59224e-42
-1.10752e-38
8.10539e-40
-8.31964e-37
8.78491e-38
-4.70134e-35
5.57302e-36
-3.28365e-33
3.61063e-34
-1.43619e-31
2.4208e-32
-5.37962e-30
1.11043e-30
-6.83518e-28
5.91787e-29
-8.26025e-26
4.63724e-27
1.27191e-25
-6.00663e-25
4.60389e-67
5.08175e-68
-1.06197e-70
6.95841e-72
-4.55923e-67
1.54155e-69
-9.24598e-65
1.00236e-65
-7.04002e-63
1.19623e-64
-5.93527e-60
1.32325e-62
-2.03481e-57
5.93708e-59
-1.07377e-55
4.98503e-57
-3.60572e-53
4.42666e-55
-3.09894e-50
3.97579e-52
-3.62477e-48
1.29556e-49
-2.14384e-46
7.60989e-48
-2.5224e-44
7.52322e-46
-4.74414e-42
2.00663e-43
-7.29913e-40
3.71957e-41
-5.81516e-38
4.25351e-39
-3.61133e-36
3.21219e-37
-2.74425e-34
2.32981e-35
-1.35533e-32
1.71547e-33
-5.40986e-31
9.1143e-32
-6.07896e-29
4.86554e-30
-7.11727e-27
3.65674e-28
1.08616e-26
-6.22907e-26
2.58171e-69
2.2829e-70
-3.62239e-73
1.12442e-73
-1.05614e-69
9.75266e-72
-1.10054e-67
1.36219e-69
-1.51211e-65
1.7545e-67
-8.04091e-63
1.27144e-64
-5.32729e-60
6.10832e-62
-1.64248e-57
6.70179e-59
-2.9148e-55
1.63414e-56
-1.56782e-52
7.50881e-55
-1.60201e-50
2.36825e-52
-2.67379e-48
6.0003e-50
-7.21221e-46
3.0107e-47
-1.29013e-43
4.53112e-45
-1.84824e-41
5.20548e-43
-1.94671e-39
6.49807e-41
-1.53028e-37
8.27988e-39
-1.31745e-35