/*--------------------------------*- C++ -*----------------------------------*\
  =========                 |
  \\      /  F ield         | OpenFOAM: The Open Source CFD Toolbox
   \\    /   O peration     | Website:  https://openfoam.org
    \\  /    A nd           | Version:  13
     \\/     M anipulation  |
\*---------------------------------------------------------------------------*/
FoamFile
{
    format      ascii;
    class       volScalarField;
    location    "0.5";
    object      p;
}
// * * * * * * * * * * * * * * * * * * * * * * * * * * * * * * * * * * * * * //

dimensions      [1 -1 -2 0 0 0 0];

internalField   nonuniform List<scalar> 
2268
(
650.443
647.048
649.885
656.961
667.45
676.004
682.034
686.899
692.962
701.637
713.248
727.665
744.596
763.717
784.769
807.267
830.049
851.065
865.689
875.23
860.255
851.801
893.582
591.236
587.094
589.662
596.549
607.027
615.815
622.03
627.018
633.216
642.023
653.711
668.025
684.794
703.73
724.521
746.765
769.631
791.566
808.19
820.899
805.149
782.198
828.195
531.361
526.431
528.31
534.647
545.116
554.35
560.926
566.155
572.615
581.689
593.59
608.125
624.989
643.96
664.615
686.378
708.33
729.376
746.527
758.949
748.819
718.152
767.262
471.413
465.337
465.942
471.393
481.82
491.728
498.841
504.423
511.261
520.712
532.906
547.632
564.645
583.687
604.346
625.989
647.578
667.855
684.432
695.924
692.059
674.716
716.597
412.054
404.273
402.85
406.86
417.184
428.076
435.915
441.927
449.252
459.183
471.728
486.687
503.881
523.071
543.866
565.608
587.26
607.395
623.904
635.61
638.677
634.065
671.709
354.009
344.004
339.48
341.35
351.608
363.724
372.373
378.787
386.623
397.114
410.074
425.332
442.735
462.128
483.186
505.224
527.217
547.647
564.655
577.277
585.055
589.445
624.836
297.997
284.905
276.642
275.996
286.123
299.128
308.339
315.151
323.526
334.539
347.856
363.433
381.302
400.903
422.317
444.818
467.39
488.382
506.112
519.603
529.124
536.149
559.751
244.198
229.281
216.084
211.008
220.452
233.751
243.068
250.626
260.093
271.862
285.44
300.948
318.069
339.134
361.181
384.531
408.058
429.811
448.27
462.408
471.434
477.068
479.594
317.982
302.442
288.552
285.249
285.318
285.29
285.466
285.579
285.012
284.282
285.074
286.11
287.273
288.693
283.461
320.387
636.012
1322.39
1686.76
316.293
298.493
285.918
283.318
283.574
284.48
285.367
285.716
284.843
283.893
284.106
280.042
268.015
263.82
266.846
278.567
381.661
938.48
1524.54
302.964
284.026
282.698
282.369
282.089
282.466
284.603
286.095
284.636
282.71
279.624
266.123
261.659
262.972
265.666
270.217
313.301
593.979
1316.19
287.434
282.069
282.207
282.099
281.782
281.599
283.194
286.723
284.934
280.901
269.973
259.342
259.226
262.131
265.293
268.381
285.074
393.467
1084.09
260.599
281.739
282.108
281.932
281.58
281.255
282.653
286.955
285.967
278.232
260.986
255.126
257.441
261.404
265.041
267.73
273.145
305.447
804.702
199.37
280.07
281.866
281.797
281.384
281.096
282.579
285.983
286.204
274.346
253.4
250.675
255.675
260.708
264.78
267.318
269.151
282.124
538.648
113.69
265.674
281.566
281.781
281.226
281.037
282.279
284.33
283.54
269.682
246.533
246.91
254.311
260.297
264.503
266.76
268.106
275.605
409.471
20.7255
204.756
280.592
281.876
281.103
281.004
281.811
282.793
280.611
266.35
243.392
245.623
253.956
260.296
264.282
266.238
267.474
266.223
359.926
162.789
146.137
124.6
111.389
118.581
130.885
138.901
147.259
159.094
173.205
188.228
205.019
223.658
242.901
265.077
289.394
314.817
338.397
358.488
374.029
380.258
369.81
295.815
70.2574
46.4785
28.5666
20.573
24.1275
30.3027
33.8081
36.9124
41.9759
50.6411
59.5511
71.1278
86.4592
107.165
132.051
161.383
191.93
218.183
240.818
259.869
271.198
272.288
267.623
10.8945
5.78918
5.49233
5.65987
5.66314
5.68808
5.71283
5.73091
5.84096
6.42441
8.36027
11.2621
15.3913
21.6418
31.9212
49.4755
73.0526
99.596
128.841
154.578
170.782
183.017
195.645
5.42554
5.3909
5.3859
5.45807
5.48844
5.51569
5.51851
5.53273
5.5534
5.52182
5.48216
5.46233
5.44367
5.43452
5.57484
6.49074
10.9635
22.513
42.1123
66.7088
79.0262
91.0482
104.195
5.33463
5.36129
5.35417
5.3435
5.34565
5.35577
5.35848
5.35185
5.32702
5.2814
5.26854
5.26653
5.26992
5.26566
5.27276
5.278
5.32863
5.60461
7.22824
10.8328
19.0538
34.9382
55.3351
5.20329
5.20289
5.20019
5.2011
5.20684
5.21286
5.2138
5.21095
5.19979
5.17884
5.16344
5.14847
5.12086
5.08187
5.04839
5.06359
5.12832
5.16953
5.18137
5.16419
5.27058
5.84088
7.1248
5.05995
5.06131
5.06502
5.06131
5.06136
5.06301
5.06179
5.05649
5.04637
5.03386
5.02286
5.01137
5.00037
4.99285
4.97625
4.9689
4.98517
4.98757
4.98928
5.00733
5.02932
5.06548
5.12258
4.91829
4.91896
4.92025
4.91826
4.91754
4.91683
4.91445
4.9095
4.90196
4.89318
4.88463
4.87615
4.86787
4.86448
4.8503
4.84605
4.85807
4.86772
4.8744
4.88411
4.88925
4.87694
4.8317
4.77456
4.77515
4.77589
4.77459
4.77349
4.77196
4.76932
4.76509
4.75931
4.75277
4.7464
4.74085
4.73656
4.73443
4.72805
4.72318
4.72559
4.72713
4.7282
4.72723
4.72679
4.69532
4.63563
4.63087
4.63161
4.63197
4.63097
4.62977
4.62808
4.62561
4.62216
4.61778
4.61287
4.60797
4.6037
4.60032
4.59816
4.59473
4.59267
4.59272
4.59287
4.59022
4.58394
4.57241
4.52741
4.46728
4.48771
4.48834
4.48848
4.48765
4.48651
4.48493
4.4828
4.48007
4.47682
4.47333
4.46949
4.46646
4.46397
4.46216
4.46029
4.45872
4.45771
4.45615
4.45215
4.44445
4.42818
4.38957
4.33766
4.34493
4.34539
4.34538
4.34469
4.34367
4.3423
4.34055
4.33842
4.336
4.33344
4.33086
4.32865
4.32688
4.3255
4.32431
4.32314
4.32189
4.31997
4.31618
4.30927
4.29468
4.26648
4.22827
4.20243
4.20274
4.20264
4.20205
4.2012
4.20007
4.19867
4.19704
4.19526
4.19342
4.19167
4.19015
4.18893
4.188
4.18723
4.18643
4.18543
4.18381
4.18088
4.17567
4.16555
4.14805
4.12523
4.06014
4.06032
4.06017
4.05969
4.05899
4.05809
4.05702
4.0558
4.05452
4.05324
4.05206
4.05107
4.05031
4.04977
4.04938
4.04898
4.04842
4.0474
4.04549
4.04203
4.03597
4.02673
4.01539
3.91798
3.91807
3.91791
3.91752
3.91698
3.9163
3.9155
3.91462
3.91373
3.91288
3.91214
3.91156
3.91118
3.91098
3.91091
3.91089
3.91078
3.91039
3.90946
3.90761
3.90445
3.90016
3.89588
3.77591
3.77594
3.7758
3.7755
3.7751
3.7746
3.77404
3.77345
3.77287
3.77235
3.77195
3.7717
3.77162
3.77171
3.77193
3.77223
3.77251
3.77267
3.77258
3.77206
3.77103
3.76973
3.76903
3.63388
3.63389
3.63378
3.63357
3.63329
3.63296
3.63259
3.63222
3.6319
3.63165
3.63151
3.63151
3.63168
3.632
3.63246
3.63302
3.63363
3.63424
3.63478
3.6352
3.63555
3.63609
3.63749
3.49188
3.49188
3.49181
3.49168
3.49151
3.49131
3.49111
3.49093
3.4908
3.49076
3.49083
3.49103
3.49139
3.49189
3.49253
3.49328
3.49413
3.49504
3.496
3.49702
3.49818
3.49969
3.50199
3.34987
3.34989
3.34986
3.3498
3.34972
3.34964
3.34957
3.34954
3.34957
3.34969
3.34992
3.35027
3.35076
3.3514
3.35216
3.35304
3.35404
3.35514
3.35634
3.35768
3.35923
3.36114
3.36373
3.20786
3.20789
3.20791
3.2079
3.2079
3.20791
3.20796
3.20804
3.2082
3.20844
3.20878
3.20924
3.20983
3.21055
3.21139
3.21235
3.21342
3.2146
3.21589
3.21732
3.21896
3.2209
3.22334
3.06582
3.06587
3.06593
3.06597
3.06603
3.06612
3.06625
3.06643
3.06667
3.067
3.06743
3.06797
3.06862
3.06938
3.07026
3.07124
3.07232
3.07349
3.07476
3.07614
3.07765
3.07938
3.08143
2.92374
2.92381
2.92391
2.92399
2.9241
2.92425
2.92444
2.92468
2.925
2.92539
2.92587
2.92646
2.92714
2.92792
2.9288
2.92976
2.9308
2.93191
2.93308
2.9343
2.93558
2.9369
2.93829
2.78162
2.78171
2.78183
2.78194
2.7821
2.78229
2.78252
2.78282
2.78318
2.78361
2.78413
2.78474
2.78543
2.78621
2.78706
2.78798
2.78895
2.78996
2.79098
2.79199
2.79296
2.79389
2.79476
2.63944
2.63955
2.6397
2.63983
2.64001
2.64023
2.6405
2.64083
2.64122
2.64168
2.64221
2.64282
2.64351
2.64427
2.64508
2.64594
2.64683
2.64771
2.64857
2.64936
2.65004
2.65057
2.65089
2.49719
2.49732
2.4975
2.49764
2.49784
2.49809
2.49838
2.49872
2.49913
2.4996
2.50014
2.50074
2.50141
2.50213
2.5029
2.50369
2.50449
2.50525
2.50595
2.50654
2.50695
2.50712
2.50696
2.35487
2.35501
2.35521
2.35537
2.35559
2.35585
2.35615
2.35651
2.35692
2.35739
2.35792
2.35851
2.35915
2.35983
2.36055
2.36127
2.36199
2.36265
2.36322
2.36363
2.36382
2.36371
2.36319
2.21249
2.21263
2.21286
2.21302
2.21326
2.21353
2.21383
2.21418
2.21461
2.21505
2.21556
2.21612
2.21674
2.21739
2.21806
2.21872
2.21937
2.21995
2.22041
2.2207
2.22075
2.22046
2.21971
2.07006
2.07016
2.07043
2.0706
2.07084
2.07115
2.0714
2.07174
2.07212
2.07258
2.07308
2.07363
2.07421
2.07482
2.07545
2.07607
2.07666
2.07718
2.07758
2.07781
2.07778
2.07742
2.07659
1.9276
1.92763
1.92794
1.92808
1.92829
1.9285
1.92885
1.9292
1.92959
1.93003
1.9305
1.93102
1.93157
1.93214
1.93273
1.93331
1.93386
1.93435
1.93473
1.93494
1.93492
1.93459
1.93384
1.78508
1.78506
1.7854
1.78552
1.78573
1.78597
1.78627
1.78661
1.78698
1.78739
1.78783
1.78832
1.78883
1.78937
1.78993
1.79047
1.791
1.79146
1.79184
1.79209
1.79214
1.79193
1.79136
1.64253
1.64248
1.64282
1.64292
1.64313
1.64336
1.64363
1.64394
1.64429
1.64467
1.64509
1.64553
1.64602
1.64652
1.64704
1.64756
1.64806
1.64853
1.64893
1.64923
1.64938
1.64934
1.64906
1.49995
1.49986
1.50021
1.50027
1.50048
1.50068
1.50094
1.50122
1.50154
1.50189
1.50227
1.50269
1.50313
1.5036
1.50408
1.50458
1.50507
1.50553
1.50596
1.50633
1.50661
1.50678
1.50682
1.35734
1.35724
1.35755
1.35757
1.35778
1.35796
1.35819
1.35844
1.35873
1.35905
1.3594
1.35978
1.36019
1.36063
1.36108
1.36155
1.36202
1.3625
1.36296
1.3634
1.36382
1.3642
1.36456
1.21469
1.2146
1.21485
1.21484
1.21503
1.21518
1.21538
1.21561
1.21587
1.21616
1.21648
1.21683
1.2172
1.21761
1.21803
1.21847
1.21894
1.21942
1.21991
1.22043
1.22097
1.22154
1.22221
1.07199
1.07192
1.07211
1.07206
1.07224
1.07236
1.07254
1.07274
1.07298
1.07323
1.07352
1.07384
1.07418
1.07455
1.07494
1.07537
1.07582
1.0763
1.07682
1.07739
1.07803
1.07877
1.07969
0.929254
0.929213
0.92934
0.929243
0.92942
0.9295
0.92966
0.929838
0.930042
0.930272
0.930529
0.930813
0.931123
0.93146
0.931825
0.932222
0.932656
0.933129
0.933657
0.934264
0.934973
0.935828
0.936929
0.786454
0.786425
0.786496
0.78638
0.786548
0.786597
0.786737
0.786889
0.787066
0.787269
0.787497
0.78775
0.788026
0.788328
0.788658
0.789024
0.789431
0.789884
0.790399
0.791006
0.791739
0.792644
0.793829
0.643569
0.643506
0.643582
0.643458
0.643602
0.643633
0.643752
0.643877
0.644031
0.644208
0.644406
0.644625
0.644863
0.645123
0.645408
0.645729
0.646092
0.646506
0.646986
0.647558
0.648257
0.649132
0.650292
0.500596
0.50052
0.500603
0.500479
0.500612
0.500623
0.500721
0.500824
0.50095
0.501091
0.50125
0.501428
0.501623
0.501838
0.502075
0.502341
0.50264
0.502984
0.503394
0.503886
0.504493
0.505263
0.506289
0.357587
0.357513
0.357591
0.357484
0.357595
0.357596
0.357669
0.357747
0.35784
0.357942
0.35806
0.358195
0.358342
0.358502
0.358677
0.358875
0.359101
0.359358
0.359667
0.360039
0.360507
0.361102
0.361896
0.214564
0.214535
0.214565
0.214505
0.214576
0.214572
0.21462
0.214665
0.214725
0.214793
0.214865
0.214944
0.215037
0.215138
0.215248
0.21537
0.215509
0.215669
0.21586
0.216092
0.216385
0.216759
0.217256
0.0715328
0.0715326
0.0715311
0.0715128
0.0715458
0.0715302
0.0715552
0.071568
0.0715887
0.0716129
0.0716401
0.071668
0.0716981
0.071733
0.0717734
0.0718165
0.0718634
0.0719199
0.0719869
0.0720699
0.0721689
0.0722971
0.0724711
132.907
129.256
141.197
118.288
246.114
235.209
219.798
201.944
186.022
178.295
178.866
182.363
111.777
116.192
123.459
134.343
62.4943
64.7425
71.0809
82.8685
9.36606
12.0233
17.3723
28.8882
5.20815
5.25707
5.26587
5.19115
4.80627
4.78562
4.69311
4.58524
4.58725
4.55999
4.53241
4.51092
4.41538
4.40302
4.40637
4.42264
4.30638
4.29564
4.29625
4.30887
4.20177
4.18933
4.18611
4.19317
4.10743
4.09659
4.09172
4.0955
4.00746
4.00374
4.00251
4.00331
3.89446
3.89469
3.89611
3.89832
3.76996
3.77126
3.77322
3.77579
3.6398
3.64178
3.64417
3.64694
3.50467
3.50674
3.50909
3.51167
3.36637
3.36832
3.37046
3.37271
3.22564
3.22731
3.22902
3.2308
3.08313
3.08432
3.08564
3.08691
2.93953
2.94035
2.94114
2.94184
2.79536
2.79572
2.796
2.79615
2.65092
2.65086
2.65068
2.65033
2.50652
2.50611
2.50554
2.50476
2.36238
2.36171
2.36085
2.35974
2.21869
2.21786
2.21682
2.2155
2.0755
2.07462
2.07352
2.07215
1.93282
1.932
1.93097
1.92968
1.79056
1.78989
1.78903
1.78796
1.64856
1.64811
1.64753
1.64679
1.50667
1.50649
1.50624
1.5059
1.36476
1.36487
1.36495
1.36502
1.22275
1.22311
1.22351
1.22394
1.08051
1.0811
1.08176
1.08249
0.93795
0.938688
0.939531
0.940483
0.794949
0.795761
0.796696
0.79776
0.651407
0.65222
0.653156
0.654222
0.507289
0.50802
0.508861
0.509821
0.362669
0.363238
0.363897
0.364656
0.217743
0.218103
0.218525
0.219013
0.0726457
0.0727736
0.0729208
0.0730915
47.1506
176.01
257.903
281.571
280.902
280.822
280.962
280.514
278.02
266.52
247.702
248.366
255.128
260.902
264.209
265.802
266.668
264.84
272.655
170.315
223.751
272.789
279.949
280.247
279.983
279.662
278.375
275.159
267.785
259.431
257.918
259.916
262.936
264.903
266.005
266.554
266.098
269.664
190.294
228.146
272.783
279.01
279.408
278.871
278.296
276.923
274.302
270.117
265.695
263.304
263.475
264.66
265.696
266.477
266.729
266.343
268.052
156.638
201.459
260.354
278.168
278.161
277.615
277.156
275.747
273.562
270.883
268.079
266.174
265.701
266.019
266.428
266.896
267.008
267.615
271.223
107.846
153.403
230.578
279.806
277.261
276.901
276.585
274.84
272.749
270.863
269.042
267.625
266.944
267.054
266.927
266.966
267.184
267.329
312.636
56.6145
84.9528
155.934
243.74
272.729
275.703
275.933
272.666
271.618
270.773
269.514
268.209
267.484
268.008
267.173
266.958
267.207
266.76
389.484
6.11976
25.7563
65.2807
133.01
188.65
218.493
268.569
270.618
270.823
270.539
269.497
268.146
266.856
262.71
258.281
265.265
255.158
281.014
511.406
4.40363
4.57729
9.63306
35.0097
75.51
130.612
178.295
218.29
239.869
261.087
260.509
250.409
237.991
191.2
195.098
222.451
265.588
424.405
678.107
4.39473
4.71133
4.68776
5.27296
14.4401
33.6466
63.4453
108.395
162.956
200.826
195.548
165.383
142.112
132.253
170.427
254.674
386.007
580.417
794.736
4.44629
4.50005
4.51753
4.57191
4.65515
4.8305
8.85462
20.2561
32.297
46.4067
56.4184
57.163
67.8037
92.3792
121.162
184.771
315.11
568.701
761.388
4.36353
4.42636
4.44619
4.43817
4.42047
4.50162
4.46244
4.43001
4.82647
6.84424
9.05333
7.08911
18.7886
55.5113
100.502
138.415
208.459
397.643
560.447
4.22491
4.25077
4.28089
4.31567
4.34591
4.39655
4.39627
4.44884
4.68765
5.23604
5.49023
5.11935
12.9056
36.1916
65.2365
106.068
151.256
280.956
385.546
4.10798
4.12804
4.15319
4.17323
4.21387
4.2713
4.30916
4.36295
4.52423
4.77725
4.6707
4.21825
6.79112
13.7227
36.6228
107.614
205.771
253.083
296.461
4.0066
4.01849
4.04004
4.07276
4.11221
4.15665
4.20654
4.27537
4.38288
4.47004
4.12042
2.84814
2.11814
12.025
54.8776
121.093
221.578
251.373
253.965
3.90311
3.91565
3.9326
3.95543
3.98732
4.02802
4.08022
4.14899
4.21634
4.1613
3.65748
2.25385
-0.711562
-1.84847
9.59564
57.8267
193.317
222.064
208.558
3.78126
3.79243
3.8076
3.82744
3.85448
3.89028
3.93563
3.98919
4.02192
3.90304
3.42257
2.54902
0.712579
0.622717
4.34865
13.0612
120.961
160.076
150.653
3.65239
3.66234
3.67481
3.69109
3.71364
3.74409
3.7813
3.81897
3.83279
3.73612
3.39961
2.9548
2.20464
2.42091
3.63367
4.24863
56.383
52.5465
91.7102
3.51651
3.52525
3.53557
3.5486
3.56674
3.59185
3.62221
3.64977
3.65687
3.60362
3.42081
3.19198
2.99137
3.01031
3.6731
3.21974
14.6045
-19.7408
45.9221
3.37682
3.38377
3.39172
3.40158
3.4156
3.43559
3.45994
3.48129
3.48755
3.46499
3.39334
3.32591
3.3529
3.44743
3.85704
4.17661
-2.28638
4.6638
36.9456
3.23399
3.23911
3.24469
3.25151
3.26166
3.27674
3.29532
3.31173
3.31903
3.31606
3.30983
3.3497
3.47574
3.62914
3.88681
2.98346
3.89569
22.376
49.033
3.08908
3.09233
3.09558
3.09951
3.10595
3.11618
3.12892
3.14018
3.14818
3.15702
3.18445
3.26511
3.42857
3.67596
3.68
3.27161
12.4937
24.2958
28.347
2.94294
2.94432
2.9453
2.94641
2.94914
2.95436
2.9606
2.96649
2.9727
2.9868
3.02697
3.11792
3.29297
3.50582
3.60629
3.60594
10.6126
20.9827
27.1251
2.79623
2.7958
2.79457
2.79292
2.79187
2.79183
2.7917
2.79109
2.79141
2.80228
2.83874
2.91609
3.05311
3.26197
3.70841
4.27308
9.78584
20.3188
26.986
2.64947
2.64738
2.64408
2.63974
2.63491
2.62945
2.6224
2.6151
2.60423
2.60266
2.62026
2.66275
2.756
3.00387
3.34365
2.04767
9.84067
25.2024
27.6324
2.50311
2.4996
2.49449
2.48769
2.47919
2.46807
2.45285
2.43317
2.4108
2.38918
2.37302
2.35771
2.33853
2.26166
2.0583
4.19249
14.5872
31.6567
24.2101
2.35749
2.35293
2.3464
2.33758
2.32593
2.30982
2.28719
2.25562
2.21685
2.17027
2.11621
2.02759
1.83206
1.42132
0.981373
1.15892
8.51457
32.2492
24.335
2.21287
2.20771
2.20032
2.19012
2.17635
2.15704
2.12965
2.09024
2.03753
1.97028
1.88685
1.74559
1.45172
1.01728
0.87054
1.21025
2.31568
15.06
23.8537
2.06941
2.06411
2.05649
2.04578
2.03135
2.01142
1.98334
1.94306
1.8861
1.81164
1.71702
1.55974
1.26771
0.886429
0.82659
1.10425
1.62946
2.70102
17.518
1.9271
1.92215
1.91495
1.90447
1.89079
1.87237
1.84715
1.81199
1.76204
1.69495
1.607
1.46371
1.22478
0.922028
0.892557
1.1193
1.60271
1.08952
6.78767
1.7858
1.78167
1.77558
1.7662
1.75442
1.7386
1.71466
1.6864
1.64888
1.59673
1.52722
1.41628
1.24187
1.07012
1.05549
1.23314
1.655
1.92636
9.98702
1.64528
1.64237
1.63818
1.63136
1.62271
1.61189
1.59208
1.56654
1.53774
1.49816
1.44598
1.37274
1.26716
1.18406
1.17248
1.321
1.37186
0.598172
21.204
1.50519
1.50376
1.50177
1.49834
1.4935
1.48857
1.47955
1.46153
1.43649
1.39903
1.3507
1.29704
1.23376
1.18794
1.21679
1.5296
1.14635
-0.116329
22.8788
1.36513
1.36523
1.36543
1.36538
1.36485
1.36544
1.36743
1.36589
1.34931
1.30799
1.2475
1.18361
1.11866
1.07673
1.17662
1.7473
2.4561
10.6083
15.7402
1.22478
1.22631
1.22849
1.23138
1.23507
1.24037
1.24941
1.26287
1.26234
1.2181
1.13154
1.03623
0.952876
0.925683
1.14717
1.70508
4.91702
8.50043
10.7464
1.08392
1.08661
1.09043
1.09558
1.10264
1.11208
1.12384
1.14076
1.15234
1.11654
1.02387
0.927005
0.855269
0.802347
0.978208
2.22082
4.86948
7.7148
15.3011
0.942325
0.945865
0.950852
0.957628
0.966929
0.979428
0.994313
1.01169
1.02479
1.01
0.957178
0.898725
0.860416
0.898474
0.933129
2.02532
3.69667
5.08674
10.7305
0.799818
0.803815
0.809424
0.817158
0.827582
0.841898
0.859419
0.879053
0.898343
0.909239
0.901035
0.87674
0.863543
1.02561
1.13271
1.59403
2.23214
2.39883
5.89426
0.656282
0.660313
0.66596
0.67393
0.684401
0.699117
0.717718
0.739558
0.765623
0.794757
0.814792
0.815713
0.812775
0.867573
1.01497
1.28156
1.57371
1.29169
2.9857
0.511673
0.515323
0.520399
0.527879
0.537392
0.550965
0.568469
0.590003
0.617985
0.654842
0.686659
0.69769
0.692878
0.713947
0.76516
1.11066
1.42744
1.1743
2.47072
0.366125
0.369043
0.373131
0.378986
0.386761
0.397739
0.411998
0.430051
0.453524
0.485164
0.507918
0.503349
0.470781
0.438821
0.474185
0.941658
1.39941
1.14001
2.25724
0.219956
0.221838
0.224475
0.228249
0.233402
0.240745
0.250509
0.26138
0.274952
0.290924
0.292264
0.259018
0.186767
-0.0203178
-0.239744
0.195274
0.943206
0.810942
1.23371
0.0734218
0.0740754
0.0749876
0.076352
0.0782115
0.0810139
0.0843435
0.0865336
0.0868199
0.079455
0.0495112
-0.0173951
-0.129508
-0.337916
-0.611771
-0.70383
0.20939
0.301641
1.26953
)
;

boundaryField
{
    leftWall
    {
        type            calculated;
        value           nonuniform List<scalar> 
50
(
650.443
591.236
531.361
471.413
412.054
354.009
297.997
244.198
162.789
70.2574
10.8945
5.42554
5.33463
5.20329
5.05995
4.91829
4.77456
4.63087
4.48771
4.34493
4.20243
4.06014
3.91798
3.77591
3.63388
3.49188
3.34987
3.20786
3.06582
2.92374
2.78162
2.63944
2.49719
2.35487
2.21249
2.07006
1.9276
1.78508
1.64253
1.49995
1.35734
1.21469
1.07199
0.929254
0.786454
0.643569
0.500596
0.357587
0.214564
0.0715328
)
;
    }
    rightWall
    {
        type            calculated;
        value           nonuniform List<scalar> 
50
(
1686.76
1524.54
1316.19
1084.09
804.702
538.648
409.471
359.926
272.655
269.664
268.052
271.223
312.636
389.484
511.406
678.107
794.736
761.388
560.447
385.546
296.461
253.965
208.558
150.653
91.7102
45.9221
36.9456
49.033
28.347
27.1251
26.986
27.6324
24.2101
24.335
23.8537
17.518
6.78767
9.98702
21.204
22.8788
15.7402
10.7464
15.3011
10.7305
5.89426
2.9857
2.47072
2.25724
1.23371
1.26953
)
;
    }
    lowerWall
    {
        type            calculated;
        value           nonuniform List<scalar> 
62
(
679.872
676.478
679.315
686.391
696.88
705.434
711.463
716.328
722.391
731.066
742.677
757.094
774.026
793.146
814.199
836.696
859.478
880.494
895.016
901.753
886.777
880.235
922.971
893.582
828.195
767.262
716.597
671.709
624.836
559.751
479.594
195.475
191.823
203.765
180.863
317.982
316.293
302.964
287.434
260.599
199.37
113.69
20.7255
318.157
302.596
288.689
285.383
285.425
285.322
285.496
285.609
285.041
284.311
285.104
286.148
287.459
291.982
290.139
329.702
648.854
1337.95
1699.95
)
;
    }
    atmosphere
    {
        type            calculated;
        value           nonuniform List<scalar> 
46
(
0
0
0
0
0
0
0
0
0
0
0
0
0
0
0
0
0
0
0
0
0
0
0
0
0
0
0
0
0
0
0
0
0
-0.000317958
-0.00327811
-0.0109922
-0.0329275
-0.0840735
-0.171527
-0.287427
-0.450229
-0.19592
-0.0190065
0
0
0
)
;
    }
    defaultFaces
    {
        type            empty;
    }
}


// ************************************************************************* //
