/*--------------------------------*- C++ -*----------------------------------*\
  =========                 |
  \\      /  F ield         | OpenFOAM: The Open Source CFD Toolbox
   \\    /   O peration     | Website:  https://openfoam.org
    \\  /    A nd           | Version:  13
     \\/     M anipulation  |
\*---------------------------------------------------------------------------*/
FoamFile
{
    format      ascii;
    class       volScalarField;
    location    "0.5";
    object      p_rgh;
}
// * * * * * * * * * * * * * * * * * * * * * * * * * * * * * * * * * * * * * //

dimensions      [1 -1 -2 0 0 0 0];

internalField   nonuniform List<scalar> 
2268
(
679.872
676.478
679.315
686.391
696.88
705.434
711.463
716.328
722.391
731.066
742.677
757.094
774.026
793.146
814.199
836.696
859.478
880.494
895.016
901.753
886.777
880.235
922.971
679.524
675.382
677.95
684.837
695.315
704.103
710.318
715.306
721.504
730.311
742
756.313
773.082
792.018
812.809
835.054
857.919
879.854
896.478
906.902
884.763
867.933
916.362
678.508
673.577
675.456
681.794
692.263
701.497
708.073
713.302
719.762
728.835
740.736
755.272
772.136
791.107
811.762
833.525
855.477
876.523
893.674
906.095
881.611
859.621
914.207
677.419
671.343
671.948
677.399
687.826
697.733
704.847
710.428
717.267
726.717
738.912
753.637
770.651
789.693
810.351
831.995
853.583
873.861
890.438
901.929
888.261
876.434
922.375
676.919
669.138
667.715
671.724
682.048
692.94
700.779
706.791
714.116
724.048
736.592
751.551
768.745
787.935
808.731
830.473
852.124
872.26
888.768
900.474
903.541
898.833
936.478
677.732
667.727
663.203
665.073
675.331
687.447
696.096
702.51
710.346
720.837
733.797
749.055
766.458
785.851
806.909
828.947
850.94
871.37
888.379
901
908.778
913.168
948.45
680.578
667.487
659.223
658.577
668.703
681.705
690.916
697.729
706.106
717.12
730.437
746.015
763.884
783.484
804.899
827.399
849.971
870.963
888.694
902.184
911.705
918.731
942.204
685.639
670.721
657.519
652.422
661.85
675.071
684.417
692.015
701.504
713.286
726.871
742.383
759.506
780.574
802.622
825.972
849.499
871.252
889.71
903.848
912.874
918.509
920.889
318.157
302.596
288.689
285.383
285.425
285.322
285.496
285.609
285.041
284.311
285.104
286.148
287.459
291.982
290.139
329.702
648.854
1337.95
1699.95
317.49
301.04
287.609
284.648
284.672
285.127
285.467
285.804
284.931
283.982
284.212
281.07
269.749
264.67
267.015
282.132
406.583
986.24
1582.75
356.099
289.829
284.171
282.733
282.57
283.598
285.216
286.248
284.783
282.86
280.274
267.454
262.03
263.128
265.865
270.509
314.021
615.167
1413.29
421.371
282.285
282.417
282.309
281.991
282.07
284.054
287.008
285.156
281.507
270.913
260.09
259.438
262.344
265.506
268.643
285.564
412.178
1219.89
434.843
282.074
282.379
282.202
281.849
281.59
283.455
287.334
286.393
279.478
262.205
255.61
257.713
261.674
265.307
268.006
273.515
317.858
977.93
438.284
286.226
282.199
282.124
281.711
281.457
283.03
286.457
287.451
275.899
254.923
251.466
256.007
261.039
265.104
267.643
269.498
288.111
677.899
483.466
499.879
282.11
282.168
281.61
281.429
282.672
284.878
285.375
271.528
248.368
247.978
254.7
260.686
264.886
267.143
268.489
278
447.599
462.153
645.003
330.245
282.322
281.546
281.446
282.255
283.334
282.158
268.476
245.518
246.322
254.463
260.741
264.724
266.679
267.916
269.369
609.84
696.254
679.585
645.993
609.128
621.288
647.848
665.468
678.035
691.874
706.274
721.38
738.251
756.968
776.318
798.525
822.861
848.284
871.864
891.955
907.496
913.725
903.277
829.197
644.887
463.321
272.563
178.867
217.964
288.052
328.928
364.342
418.737
484.134
549.718
616.605
682.548
741.846
790.701
820.044
850.592
876.845
899.479
918.531
929.86
930.95
926.271
79.9565
6.57304
6.27619
6.44373
6.447
6.47194
6.49668
6.51476
6.62482
20.4089
47.4452
86.0822
141.759
225.107
357.804
562.798
813.481
883.452
912.697
938.434
954.638
966.873
979.501
6.33459
6.29995
6.29495
6.36713
6.39749
6.42474
6.42756
6.44178
6.46245
6.43087
6.39121
6.37138
6.35274
6.3436
6.48435
28.0238
98.0364
265.433
542.73
897.817
988.077
1000.1
1013.24
6.36887
6.39553
6.38842
6.37774
6.37989
6.39002
6.39273
6.38609
6.36126
6.31566
6.30283
6.3008
6.30419
6.29993
6.30705
6.31276
6.37091
11.8232
45.3202
105.631
238.736
479.453
847.322
6.36273
6.36233
6.35963
6.36054
6.36628
6.3723
6.37324
6.37039
6.35923
6.33858
6.32348
6.30831
6.28036
6.24137
6.22573
6.28714
6.34975
6.39123
6.40323
6.38731
6.99126
17.6312
44.2877
6.34458
6.34594
6.34966
6.34594
6.346
6.34765
6.34643
6.34112
6.33102
6.31897
6.30816
6.29667
6.28532
6.2776
6.2622
6.34833
6.34935
6.34261
6.40956
6.44551
6.32125
6.35883
6.41565
6.32812
6.32879
6.33008
6.32808
6.32737
6.32666
6.32428
6.31933
6.31179
6.30318
6.2951
6.28633
6.27776
6.27449
6.26066
6.25869
6.2679
6.27754
6.28423
6.29394
6.3064
6.39273
6.32386
6.30958
6.31017
6.31091
6.30961
6.30851
6.30698
6.30434
6.30011
6.29434
6.2878
6.28143
6.27587
6.27158
6.27027
6.2651
6.25821
6.26061
6.26216
6.26322
6.26226
6.32486
6.71959
6.68489
6.29108
6.29183
6.29219
6.29119
6.28999
6.2883
6.28583
6.28238
6.278
6.27309
6.26818
6.26392
6.26055
6.25904
6.25672
6.25307
6.25293
6.25309
6.25044
6.24585
6.30882
6.48798
6.83842
6.27312
6.27375
6.27389
6.27306
6.27192
6.27034
6.26821
6.26548
6.26223
6.25874
6.2549
6.25187
6.2494
6.24757
6.2457
6.24413
6.24312
6.24157
6.23756
6.22986
6.21359
6.175
6.37593
6.25554
6.256
6.25599
6.25529
6.25428
6.25291
6.25116
6.24903
6.24661
6.24404
6.24147
6.23926
6.23749
6.23611
6.23492
6.23374
6.2325
6.23058
6.22679
6.21987
6.20529
6.17708
6.13888
6.23823
6.23855
6.23844
6.23785
6.237
6.23587
6.23447
6.23284
6.23106
6.22923
6.22747
6.22595
6.22474
6.2238
6.22303
6.22224
6.22124
6.21961
6.21669
6.21147
6.20135
6.18385
6.16103
6.22114
6.22132
6.22116
6.22068
6.21999
6.21909
6.21801
6.2168
6.21551
6.21423
6.21306
6.21207
6.21131
6.21077
6.21037
6.20998
6.20942
6.20839
6.20648
6.20303
6.19696
6.18772
6.17639
6.20417
6.20427
6.2041
6.20371
6.20317
6.20249
6.20169
6.20081
6.19992
6.19907
6.19833
6.19775
6.19737
6.19717
6.1971
6.19708
6.19697
6.19658
6.19565
6.1938
6.19064
6.18635
6.18207
6.18729
6.18733
6.18718
6.18689
6.18648
6.18599
6.18543
6.18483
6.18425
6.18373
6.18333
6.18308
6.183
6.18309
6.18331
6.18361
6.1839
6.18406
6.18396
6.18345
6.18241
6.18111
6.18041
6.17046
6.17047
6.17036
6.17015
6.16987
6.16954
6.16917
6.1688
6.16848
6.16822
6.16809
6.16809
6.16826
6.16858
6.16904
6.1696
6.17021
6.17082
6.17136
6.17178
6.17213
6.17267
6.17407
6.15365
6.15366
6.15358
6.15345
6.15328
6.15309
6.15288
6.1527
6.15258
6.15253
6.1526
6.15281
6.15316
6.15366
6.1543
6.15505
6.1559
6.15681
6.15778
6.1588
6.15995
6.16146
6.16377
6.13684
6.13686
6.13683
6.13676
6.13669
6.13661
6.13654
6.13651
6.13654
6.13666
6.13689
6.13724
6.13773
6.13836
6.13913
6.14001
6.14101
6.14211
6.14331
6.14465
6.14619
6.14811
6.1507
6.12002
6.12005
6.12007
6.12006
6.12006
6.12008
6.12012
6.12021
6.12036
6.1206
6.12095
6.12141
6.12199
6.12271
6.12355
6.12451
6.12558
6.12676
6.12805
6.12949
6.13112
6.13306
6.1355
6.10318
6.10323
6.10328
6.10332
6.10339
6.10348
6.1036
6.10378
6.10403
6.10436
6.10479
6.10532
6.10597
6.10674
6.10761
6.10859
6.10967
6.11085
6.11212
6.1135
6.11501
6.11674
6.11879
6.0863
6.08636
6.08646
6.08654
6.08665
6.0868
6.08699
6.08724
6.08755
6.08794
6.08843
6.08901
6.08969
6.09047
6.09135
6.09232
6.09336
6.09447
6.09563
6.09685
6.09813
6.09946
6.10084
6.06937
6.06946
6.06958
6.06969
6.06984
6.07003
6.07027
6.07056
6.07092
6.07136
6.07188
6.07248
6.07318
6.07395
6.07481
6.07573
6.0767
6.07771
6.07873
6.07973
6.0807
6.08164
6.08251
6.05238
6.05249
6.05264
6.05277
6.05295
6.05317
6.05344
6.05377
6.05416
6.05462
6.05515
6.05577
6.05645
6.05721
6.05802
6.05888
6.05977
6.06065
6.06151
6.0623
6.06298
6.06351
6.06383
6.03532
6.03546
6.03563
6.03578
6.03598
6.03622
6.03651
6.03686
6.03727
6.03773
6.03827
6.03888
6.03954
6.04027
6.04104
6.04183
6.04262
6.04339
6.04409
6.04467
6.04508
6.04526
6.0451
6.0182
6.01834
6.01855
6.0187
6.01892
6.01918
6.01948
6.01984
6.02025
6.02072
6.02125
6.02184
6.02248
6.02316
6.02388
6.0246
6.02532
6.02598
6.02655
6.02696
6.02715
6.02704
6.02652
6.00101
6.00115
6.00138
6.00155
6.00178
6.00205
6.00235
6.00271
6.00313
6.00358
6.00409
6.00465
6.00526
6.00591
6.00658
6.00725
6.00789
6.00847
6.00894
6.00923
6.00927
6.00899
6.00824
5.98377
5.98388
5.98415
5.98432
5.98456
5.98487
5.98512
5.98546
5.98583
5.9863
5.9868
5.98735
5.98793
5.98854
5.98917
5.98979
5.99037
5.99089
5.9913
5.99153
5.9915
5.99114
5.99031
5.96651
5.96654
5.96685
5.96699
5.9672
5.96741
5.96776
5.96812
5.96851
5.96894
5.96942
5.96993
5.97048
5.97106
5.97165
5.97223
5.97278
5.97326
5.97364
5.97385
5.97383
5.97351
5.97275
5.94919
5.94917
5.94951
5.94963
5.94984
5.95008
5.95038
5.95071
5.95109
5.9515
5.95194
5.95243
5.95294
5.95348
5.95403
5.95458
5.9551
5.95557
5.95595
5.9562
5.95624
5.95603
5.95547
5.93183
5.93178
5.93213
5.93222
5.93244
5.93266
5.93294
5.93325
5.93359
5.93397
5.93439
5.93484
5.93532
5.93582
5.93634
5.93686
5.93736
5.93783
5.93823
5.93853
5.93868
5.93865
5.93837
5.91445
5.91436
5.91471
5.91476
5.91498
5.91518
5.91544
5.91572
5.91604
5.91639
5.91677
5.91719
5.91763
5.9181
5.91858
5.91907
5.91956
5.92003
5.92046
5.92083
5.92111
5.92128
5.92132
5.89703
5.89693
5.89725
5.89727
5.89747
5.89765
5.89788
5.89814
5.89843
5.89874
5.8991
5.89948
5.89989
5.90032
5.90077
5.90124
5.90171
5.90219
5.90265
5.90309
5.90351
5.90389
5.90425
5.87957
5.87949
5.87974
5.87972
5.87992
5.88006
5.88027
5.8805
5.88076
5.88105
5.88137
5.88172
5.88209
5.88249
5.88292
5.88336
5.88382
5.8843
5.8848
5.88532
5.88585
5.88643
5.88709
5.86207
5.86201
5.86219
5.86214
5.86233
5.86244
5.86262
5.86282
5.86306
5.86332
5.8636
5.86392
5.86426
5.86463
5.86502
5.86545
5.8659
5.86638
5.8669
5.86747
5.86811
5.86885
5.86977
5.84453
5.84449
5.84462
5.84452
5.8447
5.84478
5.84494
5.84511
5.84532
5.84555
5.8458
5.84609
5.8464
5.84674
5.8471
5.8475
5.84793
5.8484
5.84893
5.84954
5.85025
5.8511
5.8522
5.82692
5.82689
5.82697
5.82685
5.82702
5.82707
5.82721
5.82736
5.82754
5.82774
5.82797
5.82822
5.8285
5.8288
5.82913
5.82949
5.8299
5.83035
5.83087
5.83148
5.83221
5.83311
5.8343
5.80923
5.80917
5.80925
5.80912
5.80927
5.8093
5.80942
5.80954
5.8097
5.80987
5.81007
5.81029
5.81053
5.81079
5.81107
5.81139
5.81176
5.81217
5.81265
5.81322
5.81392
5.8148
5.81596
5.79146
5.79138
5.79146
5.79134
5.79147
5.79148
5.79158
5.79168
5.79181
5.79195
5.79211
5.79229
5.79248
5.7927
5.79293
5.7932
5.7935
5.79384
5.79425
5.79475
5.79535
5.79612
5.79715
5.77364
5.77357
5.77364
5.77354
5.77365
5.77365
5.77372
5.7738
5.77389
5.774
5.77411
5.77425
5.7744
5.77456
5.77473
5.77493
5.77515
5.77541
5.77572
5.77609
5.77656
5.77716
5.77795
5.75581
5.75578
5.75581
5.75575
5.75582
5.75582
5.75587
5.75591
5.75597
5.75604
5.75611
5.75619
5.75628
5.75639
5.7565
5.75662
5.75676
5.75692
5.75711
5.75734
5.75763
5.75801
5.7585
5.73798
5.73798
5.73797
5.73796
5.73799
5.73797
5.738
5.73801
5.73803
5.73806
5.73808
5.73811
5.73814
5.73818
5.73822
5.73826
5.73831
5.73836
5.73843
5.73851
5.73861
5.73874
5.73891
666.121
662.469
674.411
651.562
904.755
893.869
878.284
860.369
969.878
962.15
962.721
966.201
1020.81
1025.23
1032.5
1043.38
1038.84
1067.51
1088.14
1110.44
90.0604
144.836
246.293
491.403
6.50122
6.55014
6.55943
6.54921
6.34144
6.31556
6.23748
6.14063
6.46078
6.27705
6.22137
6.20226
6.7865
6.61087
6.26418
6.25849
6.85772
6.84836
6.84898
6.86158
6.19941
6.75161
6.90731
6.45743
6.14324
6.1324
6.12752
6.1313
6.16846
6.16474
6.16351
6.16431
6.18065
6.18088
6.1823
6.18451
6.18135
6.18265
6.18461
6.18717
6.17638
6.17836
6.18075
6.18352
6.16644
6.16852
6.17087
6.17345
6.15334
6.15529
6.15743
6.15968
6.1378
6.13947
6.14118
6.14297
6.12049
6.12168
6.123
6.12427
6.10208
6.1029
6.10369
6.10439
6.08311
6.08347
6.08375
6.08389
6.06386
6.0638
6.06362
6.06327
6.04465
6.04424
6.04368
6.04289
6.02571
6.02504
6.02418
6.02307
6.00721
6.00638
6.00534
6.00402
5.98922
5.98834
5.98724
5.98587
5.97174
5.97091
5.96988
5.96859
5.95467
5.95399
5.95314
5.95206
5.93786
5.93742
5.93683
5.93609
5.92116
5.92099
5.92074
5.92039
5.90446
5.90456
5.90465
5.90471
5.88763
5.888
5.8884
5.88883
5.87059
5.87118
5.87184
5.87257
5.85323
5.85396
5.85481
5.85576
5.83542
5.83623
5.83717
5.83823
5.81707
5.81788
5.81882
5.81989
5.79815
5.79888
5.79972
5.80068
5.77872
5.77929
5.77995
5.78071
5.75899
5.75935
5.75977
5.76026
5.73909
5.73922
5.73936
5.73953
580.598
709.47
578.342
289.499
281.443
281.357
281.496
281.063
278.596
267.948
249.233
249.188
255.677
261.437
264.743
266.336
267.202
265.374
702.574
828.851
882.404
894.131
358.35
280.913
280.643
280.322
279.036
275.827
268.474
260.108
258.61
260.586
263.595
265.561
266.664
267.213
266.757
805.802
974.127
1011.99
1042.42
399.468
280.225
279.657
279.082
277.708
275.089
270.905
266.483
264.092
264.259
265.444
266.48
267.261
267.513
267.13
907.608
1065.68
1110.5
1167.69
428.553
279.124
278.526
278.067
276.658
274.472
271.793
268.988
267.083
266.61
266.928
267.337
267.805
267.917
275.705
1075.39
1141.39
1187.63
1264.8
808.384
288.325
277.936
277.62
275.875
273.783
271.898
270.076
268.659
267.979
268.088
267.963
268.003
268.219
609.436
1275.31
1043.64
1242.16
1315.35
1369.22
729.303
276.865
284.704
274.334
272.79
271.932
270.673
269.368
268.643
269.168
268.332
268.117
268.366
1062.19
1482.46
55.3779
527.085
1292.89
1397.09
1452.71
1300.24
856.274
271.905
272.107
271.824
270.781
269.431
268.141
452.361
434.057
291.626
494.68
1418.03
1723.47
5.96096
6.13875
148.272
740.376
1451.92
1503.92
1547.99
1407.79
973.308
485.062
458.808
638.516
881.187
1257.33
1336.77
1304.56
1458.02
1754.53
2008.41
6.09225
6.41108
6.38772
27.5209
263.765
740.554
1314.7
1426.09
1480.66
1511.28
1528.9
1569.31
1578.83
1574.58
1616.14
1702.65
1834.42
2028.85
2243.17
6.28459
6.33863
6.35595
6.4108
6.50041
13.6753
126.864
434.597
747.472
987.495
1192.51
1298.58
1297.08
1248.54
1093.15
1188.79
1607.71
2134.18
2327.96
6.72465
6.53568
6.95184
6.99854
6.97737
6.85694
6.24869
6.2305
11.0976
52.3996
129.422
179.761
179.295
159.931
164.6
209.82
578.077
1870.54
2244.79
6.58803
6.9941
7.02363
6.9906
6.4316
6.31432
6.30711
6.37359
6.69365
7.45058
9.03501
12.1149
23.477
50.975
114.702
248.961
851.898
1925.15
2187.23
6.17823
6.21138
6.24735
6.20903
6.24967
6.3071
6.34515
6.40032
6.5641
6.83032
6.84109
7.08596
14.2031
394.497
1221.71
1600.84
1909.32
2122.26
2215.78
6.16759
6.17949
6.20104
6.23376
6.27321
6.31765
6.36758
6.43653
6.54448
6.63763
6.36145
5.88271
17.0684
818.768
1796.73
2108.2
2209.55
2240.11
2023.76
6.1893
6.20184
6.2188
6.24162
6.27351
6.31421
6.36641
6.43519
6.50271
6.4569
6.16564
8.00716
13.1268
10.2181
171.33
1450.87
2297.27
2326.23
1877.73
6.19264
6.20382
6.21898
6.23883
6.26587
6.30166
6.34702
6.40058
6.43338
6.32034
5.96173
7.03104
15.8929
12.6867
11.1728
198.025
1935.78
2379.43
1911.19
6.18897
6.19892
6.21139
6.22767
6.25022
6.28067
6.31788
6.35556
6.36941
6.27593
5.98312
6.34579
18.0939
11.0089
8.96605
374.768
1498.12
2298.68
2058.85
6.17829
6.18703
6.19735
6.21038
6.22853
6.25364
6.28399
6.31155
6.31865
6.26692
6.10221
6.13225
9.54157
5.69305
9.07067
756.094
1519.47
1590.39
2315.29
6.16379
6.17074
6.17869
6.18855
6.20258
6.22264
6.24698
6.26827
6.27453
6.25216
6.1905
6.20278
6.14947
6.25289
27.0848
832.303
841.596
717.004
2412.37
6.14615
6.15128
6.15685
6.16368
6.17382
6.18895
6.21004
6.22811
6.23192
6.22834
6.22342
6.28263
6.39456
6.55377
19.5998
358.771
702.23
343.447
1540.15
6.12644
6.12969
6.13294
6.13687
6.1433
6.1536
6.16939
6.18229
6.18964
6.19451
6.22248
6.30808
6.47223
6.72018
6.89208
159.421
744.129
222.371
221.284
6.1055
6.10687
6.10785
6.10896
6.1117
6.11691
6.12315
6.13164
6.1411
6.15047
6.19022
6.28119
6.46301
6.6813
7.78083
105.233
553.199
219.81
225.952
6.08398
6.08354
6.08232
6.08066
6.07964
6.07991
6.08031
6.08129
6.08525
6.09498
6.12722
6.20458
6.35174
6.8703
12.3972
108.52
424.861
902.444
233.684
6.06241
6.06032
6.05702
6.05269
6.04786
6.04393
6.04049
6.03345
6.02349
6.02191
6.03397
6.07692
6.17951
6.72781
17.3395
543.945
1068.66
1127.4
483.07
6.04124
6.03774
6.03263
6.02583
6.01733
6.00744
5.99603
5.97786
5.95549
5.93386
5.91728
5.89996
5.88509
5.93685
15.931
589.132
1157.22
1175.58
1168.13
6.02082
6.01626
6.00973
6.00091
5.98926
5.97315
5.95102
5.92383
5.88684
5.83651
5.78231
5.69421
5.51395
5.36184
5.06601
5.3949
472.146
1216.64
1208.74
6.0014
5.99623
5.98884
5.97865
5.96488
5.9456
5.91826
5.88016
5.82962
5.76159
5.67699
5.53626
5.37049
5.67062
5.00691
5.02087
6.63619
613.967
1248.72
5.98313
5.97783
5.97021
5.9595
5.94511
5.92578
5.89796
5.85771
5.80199
5.72801
5.63218
5.47526
5.52694
5.71869
4.86639
5.02839
5.55418
45.433
1282.31
5.96601
5.96106
5.95386
5.94339
5.92973
5.91191
5.88712
5.85242
5.80309
5.73513
5.64722
5.50695
5.81568
5.87087
4.94965
5.16838
5.65183
31.5718
1092.41
5.94991
5.94578
5.93969
5.93031
5.91855
5.90278
5.87915
5.85197
5.81425
5.76108
5.69282
5.60802
5.78325
5.3958
5.22889
5.40578
5.82997
39.5437
642.599
5.93459
5.93168
5.92749
5.92066
5.91203
5.90125
5.88157
5.85625
5.82725
5.78763
5.73797
5.68458
5.58646
5.48206
5.46745
5.61633
5.67495
434.916
974.233
5.91969
5.91825
5.91627
5.91284
5.90802
5.90312
5.89411
5.87609
5.85114
5.81367
5.76601
5.71241
5.64981
5.607
5.63617
5.95505
5.62482
731.5
1003.72
5.90482
5.90493
5.90512
5.90507
5.90456
5.90516
5.90715
5.91077
5.90435
5.85863
5.78808
5.78212
5.82846
5.6913
5.72612
11.3369
11.1911
279.232
1024.4
5.88967
5.89119
5.89337
5.89627
5.89996
5.90526
5.91451
5.9294
5.94151
5.89751
6.1599
6.46128
6.37131
5.66365
5.87752
57.3826
42.4201
18.8961
997.55
5.874
5.8767
5.88051
5.88566
5.89272
5.90216
5.91422
5.93156
5.94355
5.90685
6.09043
5.99776
5.65241
5.60251
38.5426
67.2569
62.224
16.7886
952.542
5.8576
5.86114
5.86613
5.8729
5.8822
5.8947
5.90965
5.92736
5.94037
5.9255
5.87838
5.81477
5.77569
5.9965
67.5527
68.7612
50.6197
13.1751
835.442
5.84029
5.84429
5.84989
5.85763
5.86805
5.88237
5.89989
5.91955
5.93886
5.94976
5.94151
5.91723
5.90401
24.9347
69.0951
70.0297
33.3003
10.1475
886.605
5.82195
5.82598
5.83162
5.83959
5.85007
5.86478
5.88338
5.90522
5.93129
5.96042
5.98046
5.98138
5.97844
20.0956
68.9304
54.3577
10.6212
9.18538
940.275
5.80253
5.80618
5.81126
5.81874
5.82825
5.84182
5.85933
5.88086
5.90884
5.9457
5.97752
5.98855
5.98374
14.2561
68.1748
28.0482
9.52054
9.27934
962.325
5.78218
5.7851
5.78918
5.79504
5.80281
5.81379
5.82805
5.84611
5.86958
5.90122
5.92397
5.9194
5.88683
24.1419
67.6302
54.9186
10.2095
9.40618
811.344
5.7612
5.76309
5.76572
5.7695
5.77465
5.78199
5.79176
5.80263
5.8162
5.83217
5.83351
5.80027
5.72801
9.95124
66.8578
67.1772
15.1444
9.25807
379.247
5.73986
5.74052
5.74143
5.74279
5.74465
5.74746
5.75079
5.75298
5.75326
5.7459
5.71595
5.64905
5.53693
5.32853
27.4549
63.9867
25.9322
8.98466
497.921
)
;

boundaryField
{
    leftWall
    {
        type            fixedFluxPressure;
        gradient        uniform 0;
        value           nonuniform List<scalar> 
50
(
679.872
679.524
678.508
677.419
676.919
677.732
680.578
685.639
696.254
644.887
79.9565
6.33459
6.36887
6.36273
6.34458
6.32812
6.30958
6.29108
6.27312
6.25554
6.23823
6.22114
6.20417
6.18729
6.17046
6.15365
6.13684
6.12002
6.10318
6.0863
6.06937
6.05238
6.03532
6.0182
6.00101
5.98377
5.96651
5.94919
5.93183
5.91445
5.89703
5.87957
5.86207
5.84453
5.82692
5.80923
5.79146
5.77364
5.75581
5.73798
)
;
    }
    rightWall
    {
        type            fixedFluxPressure;
        gradient        uniform 0;
        value           nonuniform List<scalar> 
50
(
1699.95
1582.75
1413.29
1219.89
977.93
677.899
447.599
609.84
702.574
805.802
907.608
1075.39
1275.31
1482.46
1723.47
2008.41
2243.17
2327.96
2244.79
2187.23
2215.78
2023.76
1877.73
1911.19
2058.85
2315.29
2412.37
1540.15
221.284
225.952
233.684
483.07
1168.13
1208.74
1248.72
1282.31
1092.41
642.599
974.233
1003.72
1024.4
997.55
952.542
835.442
886.605
940.275
962.325
811.344
379.247
497.921
)
;
    }
    lowerWall
    {
        type            fixedFluxPressure;
        gradient        uniform 0;
        value           nonuniform List<scalar> 
62
(
679.872
676.478
679.315
686.391
696.88
705.434
711.463
716.328
722.391
731.066
742.677
757.094
774.026
793.146
814.199
836.696
859.478
880.494
895.016
901.753
886.777
880.235
922.971
922.971
916.362
914.207
922.375
936.478
948.45
942.204
920.889
666.121
662.469
674.411
651.562
318.157
317.49
356.099
421.371
434.843
438.284
483.466
462.153
318.157
302.596
288.689
285.383
285.425
285.322
285.496
285.609
285.041
284.311
285.104
286.148
287.459
291.982
290.139
329.702
648.854
1337.95
1699.95
)
;
    }
    atmosphere
    {
        type            prghTotalPressure;
        rho             rho;
        psi             none;
        gamma           1;
        p0              uniform 0;
        value           nonuniform List<scalar> 
46
(
5.72904
5.72904
5.72904
5.72904
5.72904
5.72904
5.72904
5.72904
5.72904
5.72904
5.72904
5.72904
5.72904
5.72904
5.72904
5.72904
5.72904
5.72904
5.72904
5.72904
5.72904
5.72904
5.72904
5.72904
5.72904
5.72904
5.72904
5.72904
5.72904
5.72904
5.72904
5.72904
5.72904
5.72872
5.72576
5.71805
5.69611
5.64497
5.55751
5.44161
5.27881
5.53312
5.71003
26.0069
8.77894
502.138
)
;
        rho             rho;
    }
    defaultFaces
    {
        type            empty;
    }
}


// ************************************************************************* //
