/*--------------------------------*- C++ -*----------------------------------*\
  =========                 |
  \\      /  F ield         | OpenFOAM: The Open Source CFD Toolbox
   \\    /   O peration     | Website:  https://openfoam.org
    \\  /    A nd           | Version:  13
     \\/     M anipulation  |
\*---------------------------------------------------------------------------*/
FoamFile
{
    format      ascii;
    class       surfaceScalarField;
    location    "0.5";
    object      phi;
}
// * * * * * * * * * * * * * * * * * * * * * * * * * * * * * * * * * * * * * //

dimensions      [0 3 -1 0 0 0 0];

internalField   nonuniform List<scalar> 
4432
(
-3.78455e-06
3.78455e-06
-5.26507e-06
1.48052e-06
-3.27581e-06
-1.98926e-06
9.47284e-07
-4.22309e-06
6.41048e-06
-5.4632e-06
1.19882e-05
-5.57771e-06
1.67795e-05
-4.79135e-06
2.0361e-05
-3.5815e-06
2.27345e-05
-2.37349e-06
2.40989e-05
-1.36434e-06
2.46737e-05
-5.74848e-07
2.45917e-05
8.19731e-08
2.38689e-05
7.22851e-07
2.24571e-05
1.41178e-06
2.01174e-05
2.33974e-06
1.64119e-05
3.70549e-06
1.08553e-05
5.55659e-06
3.62514e-06
7.23013e-06
-2.9437e-06
6.56884e-06
-8.81438e-06
5.87068e-06
-1.64015e-05
7.58718e-06
-1.56242e-05
-7.77403e-07
-1.56241e-05
-4.06555e-06
7.8501e-06
-4.93773e-06
2.3527e-06
-2.784e-06
-4.143e-06
1.4163e-06
-8.42339e-06
6.80508e-06
-1.0852e-05
1.23117e-05
-1.10843e-05
1.70226e-05
-9.50232e-06
2.05214e-05
-7.08021e-06
2.28357e-05
-4.68783e-06
2.41879e-05
-2.71653e-06
2.48188e-05
-1.20574e-06
2.49676e-05
-6.68264e-08
2.48438e-05
8.466e-07
2.4541e-05
1.71459e-06
2.40865e-05
2.79423e-06
2.32819e-05
4.51013e-06
2.13918e-05
7.44668e-06
1.68952e-05
1.17267e-05
8.57125e-06
1.48928e-05
-2.71553e-06
1.71575e-05
-1.07443e-05
1.56159e-05
-9.18307e-06
-2.33863e-06
-2.48072e-05
-3.44376e-06
1.12939e-05
-4.01276e-06
2.9217e-06
-1.89776e-06
-6.258e-06
2.04126e-06
-1.23624e-05
7.19002e-06
-1.60008e-05
1.25393e-05
-1.64336e-05
1.70872e-05
-1.40503e-05
2.03951e-05
-1.03881e-05
2.25416e-05
-6.83427e-06
2.37965e-05
-3.97152e-06
2.44083e-05
-1.81751e-06
2.45455e-05
-2.04046e-07
2.43243e-05
1.06779e-06
2.38309e-05
2.20805e-06
2.3176e-05
3.44913e-06
2.25639e-05
5.12225e-06
2.22692e-05
7.74134e-06
2.16813e-05
1.23147e-05
1.83867e-05
1.81874e-05
1.11571e-05
2.4387e-05
1.96041e-06
2.48127e-05
-2.50995e-07
-1.27242e-07
-2.50582e-05
-2.53768e-06
1.38315e-05
-2.68058e-06
3.0646e-06
-7.07374e-07
-8.23121e-06
2.7189e-06
-1.57887e-05
7.48045e-06
-2.07623e-05
1.26235e-05
-2.15766e-05
1.69936e-05
-1.84203e-05
2.00977e-05
-1.34923e-05
2.20671e-05
-8.80366e-06
2.32272e-05
-5.13161e-06
2.38423e-05
-2.43263e-06
2.40693e-05
-4.31027e-07
2.39947e-05
1.14243e-06
2.36612e-05
2.54151e-06
2.31009e-05
4.00945e-06
2.24037e-05
5.8195e-06
2.18878e-05
8.25716e-06
2.21651e-05
1.20374e-05
2.26462e-05
1.77064e-05
2.14999e-05
2.55333e-05
1.7605e-05
2.87076e-05
9.53077e-06
7.94694e-06
-1.55274e-05
-1.33704e-06
1.51686e-05
-7.83896e-07
2.51145e-06
9.98244e-07
-1.00133e-05
3.9712e-06
-1.87616e-05
8.2212e-06
-2.50123e-05
1.2912e-05
-2.62674e-05
1.68769e-05
-2.23852e-05
1.96514e-05
-1.62668e-05
2.14196e-05
-1.05718e-05
2.25181e-05
-6.23019e-06
2.31864e-05
-3.10091e-06
2.35477e-05
-7.92269e-07
2.36626e-05
1.02744e-06
2.35581e-05
2.64606e-06
2.32575e-05
4.31005e-06
2.2813e-05
6.26402e-06
2.23418e-05
8.72837e-06
2.23314e-05
1.20478e-05
2.35142e-05
1.65235e-05
2.55854e-05
2.34621e-05
2.52158e-05
2.90772e-05
1.61551e-05
1.70076e-05
6.27704e-07
2.18242e-07
1.49503e-05
2.00102e-06
7.2867e-07
4.12258e-06
-1.21349e-05
7.08705e-06
-2.17261e-05
1.06776e-05
-2.86028e-05
1.43147e-05
-2.99045e-05
1.72853e-05
-2.53559e-05
1.93531e-05
-1.83346e-05
2.07455e-05
-1.19642e-05
2.17443e-05
-7.22902e-06
2.24984e-05
-3.855e-06
2.30498e-05
-1.34372e-06
2.34038e-05
6.73494e-07
2.354e-05
2.50989e-06
2.34794e-05
4.37066e-06
2.32906e-05
6.45281e-06
2.31017e-05
8.91719e-06
2.30754e-05
1.20741e-05
2.37355e-05
1.58634e-05
2.60169e-05
2.11807e-05
2.72273e-05
2.78668e-05
1.92002e-05
2.50347e-05
1.98279e-05
2.5329e-06
1.24174e-05
5.95002e-06
-2.68845e-06
9.64773e-06
-1.58326e-05
1.31275e-05
-2.52059e-05
1.56304e-05
-3.11058e-05
1.73501e-05
-3.16242e-05
1.86664e-05
-2.66721e-05
1.96778e-05
-1.93461e-05
2.04992e-05
-1.27856e-05
2.12525e-05
-7.98227e-06
2.19784e-05
-4.58095e-06
2.26376e-05
-2.00286e-06
2.3217e-05
9.40478e-08
2.36101e-05
2.11678e-06
2.38012e-05
4.17957e-06
2.38364e-05
6.41757e-06
2.38758e-05
8.87779e-06
2.40436e-05
1.19063e-05
2.43916e-05
1.55155e-05
2.5805e-05
1.97674e-05
2.71435e-05
2.65282e-05
2.16881e-05
3.049e-05
4.15161e-05
4.86169e-06
7.55576e-06
1.11485e-05
-8.97522e-06
1.75337e-05
-2.22179e-05
2.12995e-05
-2.89717e-05
2.18269e-05
-3.16331e-05
2.09804e-05
-3.07776e-05
2.04916e-05
-2.61833e-05
2.06037e-05
-1.94582e-05
2.10475e-05
-1.32294e-05
2.16303e-05
-8.565e-06
2.2264e-05
-5.21469e-06
2.28816e-05
-2.62045e-06
2.33137e-05
-3.38011e-07
2.37747e-05
1.65571e-06
2.40899e-05
3.86439e-06
2.43387e-05
6.16876e-06
2.46375e-05
8.57898e-06
2.50489e-05
1.14949e-05
2.55082e-05
1.50561e-05
2.63667e-05
1.89089e-05
2.72487e-05
2.56463e-05
2.30054e-05
3.47333e-05
6.45215e-05
0.000105346
-0.000105346
0.00018246
-7.71137e-05
0.000192829
-1.03696e-05
0.000190594
2.23509e-06
0.000159642
3.09522e-05
8.45831e-05
7.50591e-05
1.13351e-05
7.32474e-05
7.75764e-06
3.57704e-06
5.68446e-05
-4.90872e-05
3.09021e-05
2.59426e-05
-9.12451e-05
0.000122147
-0.000268402
0.000177157
-0.000399716
0.000131314
-0.000401921
2.20453e-06
-0.000339204
-6.27162e-05
-0.000265357
-7.38475e-05
-0.000187835
-7.75217e-05
-8.03523e-05
-0.000107483
-8.03523e-05
4.63585e-05
-0.000151704
8.83895e-05
-0.000119145
0.000100563
-2.25438e-05
0.000116296
-1.34973e-05
0.000151532
-4.28363e-06
0.000151075
7.55154e-05
8.40041e-05
0.000140318
4.27208e-05
4.48604e-05
4.1455e-05
-4.78217e-05
-0.000103533
0.000170931
-0.000316047
0.000334661
-0.000438837
0.000299947
-0.000417208
0.000109685
-0.000330196
-8.48076e-05
-0.000277196
-0.000115716
-0.000233895
-0.000117148
-0.000155855
-0.000155562
-5.80777e-05
-0.00020526
-0.00013843
1.43387e-05
-0.000166043
4.33322e-05
-0.000148138
7.34654e-05
-5.26772e-05
8.19603e-05
-2.19921e-05
0.000108892
-3.12151e-05
0.000137569
4.68378e-05
9.6888e-05
0.000180999
4.88135e-05
9.29349e-05
-3.80251e-05
3.9017e-05
-0.000223196
0.000356102
-0.000393429
0.000504894
-0.000444136
0.000350654
-0.00039085
5.63991e-05
-0.000358038
-0.000117619
-0.000319895
-0.000153859
-0.000259451
-0.000177593
-0.000181703
-0.00023331
-5.84445e-05
-0.000328518
-0.000196875
-2.38293e-05
-0.000142214
-2.4548e-05
-0.00014742
3.99909e-05
-0.000117216
8.14799e-05
-6.34812e-05
9.54232e-05
-4.51583e-05
0.000104342
3.79186e-05
7.2174e-05
0.000213168
-2.02693e-05
0.000185378
-0.000184336
0.000203084
-0.000335689
0.000507455
-0.000412694
0.000581899
-0.000387247
0.000325208
-0.000327637
-3.2108e-06
-0.000279223
-0.000166034
-0.000225865
-0.000207217
-0.000196427
-0.00020703
-0.000151279
-0.000278458
-5.05106e-05
-0.000429287
-0.000247385
-4.14449e-05
-0.000100769
-3.24886e-05
-0.000156376
8.98761e-06
-0.000158692
4.51608e-05
-9.96541e-05
5.713e-05
-5.7127e-05
5.40334e-05
4.10152e-05
1.81317e-05
0.000249069
-0.00012173
0.00032524
-0.000299782
0.000381137
-0.0003876
0.000595273
-0.000392767
0.000587066
-0.000333016
0.000265457
-0.000264388
-7.1839e-05
-0.000195529
-0.000234893
-0.00013818
-0.000264566
-0.00011816
-0.00022705
-0.000104822
-0.000291796
-4.21349e-05
-0.000491974
-0.00028952
-2.9965e-05
-7.08038e-05
-3.0678e-05
-0.000155663
-1.21089e-05
-0.000177261
1.67455e-05
-0.000128509
2.14239e-05
-6.18054e-05
7.45701e-06
5.49823e-05
-4.77378e-05
0.000304265
-0.000188637
0.000466139
-0.000334067
0.000526567
-0.000376604
0.00063781
-0.000348603
0.000559065
-0.000274479
0.000191333
-0.000186477
-0.000159842
-0.000106279
-0.00031509
-6.06557e-05
-0.00031019
-4.55149e-05
-0.000242191
-6.37325e-05
-0.000273579
-3.74743e-05
-0.000518232
-0.000326994
-5.55958e-06
-6.52443e-05
-2.78823e-05
-0.00013334
-1.31808e-05
-0.000191962
-2.18887e-06
-0.0001395
-6.66615e-06
-5.73285e-05
-2.68469e-05
7.51627e-05
-7.54357e-05
0.000352854
-0.000187852
0.000578555
-0.000300892
0.000639607
-0.000316269
0.000653187
-0.00025672
0.000499515
-0.000158985
9.3598e-05
-7.00196e-05
-0.000248807
-1.48131e-05
-0.000370296
6.39328e-06
-0.000331396
2.98417e-05
-0.000265639
-1.31743e-05
-0.000230563
-4.41358e-05
-0.000487271
-0.00037113
1.17411e-05
-7.69854e-05
-7.93746e-07
-0.000120806
-1.1328e-05
-0.000181428
-4.90308e-06
-0.000145925
-1.90874e-05
-4.31442e-05
-4.64568e-05
0.000102532
-7.00587e-05
0.000376455
-0.000132058
0.000640554
-0.000207034
0.000714583
-0.00021738
0.000663533
-0.000135061
0.000417197
-2.54356e-05
-1.60276e-05
3.30033e-05
-0.000307246
5.15954e-05
-0.000388888
5.49386e-05
-0.000334739
6.12664e-05
-0.000271967
6.58236e-05
-0.00023512
-1.12166e-05
-0.000410231
-0.000382347
1.85547e-05
-1.09989e-05
4.23849e-05
-3.28054e-05
6.0083e-05
-3.9916e-05
6.25307e-05
-3.14194e-05
5.53545e-05
-2.44569e-05
4.74695e-05
-2.28927e-05
4.32774e-05
-2.19912e-05
4.2942e-05
-1.91229e-05
4.49094e-05
-1.51968e-05
4.77212e-05
-1.13768e-05
5.04401e-05
-7.93362e-06
5.25298e-05
-4.71006e-06
5.38581e-05
-1.66632e-06
5.4115e-05
1.39883e-06
5.39e-05
4.07934e-06
5.36777e-05
6.3911e-06
5.42667e-05
7.98992e-06
5.55201e-05
1.02415e-05
5.7437e-05
1.31392e-05
6.05623e-05
1.57836e-05
6.68992e-05
1.93094e-05
7.97092e-05
2.19232e-05
3.34674e-05
0.000110763
2.84203e-05
-3.94193e-05
5.74775e-05
-6.18626e-05
6.60415e-05
-4.848e-05
5.01205e-05
-1.54984e-05
3.51105e-05
-9.44687e-06
2.66816e-05
-1.44638e-05
2.22537e-05
-1.75633e-05
2.2539e-05
-1.94082e-05
2.83821e-05
-2.10399e-05
3.718e-05
-2.01746e-05
4.58043e-05
-1.65579e-05
5.27522e-05
-1.1658e-05
5.71051e-05
-6.01918e-06
5.91264e-05
-6.22464e-07
5.87868e-05
4.41889e-06
5.80252e-05
7.15268e-06
5.86282e-05
7.38694e-06
5.93792e-05
9.49049e-06
6.11524e-05
1.13661e-05
6.53563e-05
1.15796e-05
7.27876e-05
1.18781e-05
8.35038e-05
1.12071e-05
1.15264e-05
0.000105445
4.17962e-05
-8.12155e-05
2.8694e-05
-4.87604e-05
-1.88163e-05
-9.69741e-07
-5.27572e-05
1.84425e-05
-5.19981e-05
-1.02059e-05
-5.68837e-05
-9.57811e-06
-7.29322e-05
-1.5147e-06
-7.98601e-05
-1.24801e-05
-6.78434e-05
-3.30567e-05
-3.80089e-05
-5.0009e-05
-1.51394e-05
-3.94274e-05
4.86892e-06
-3.16663e-05
2.30382e-05
-2.41885e-05
3.6935e-05
-1.45192e-05
4.79067e-05
-6.5528e-06
5.81389e-05
-3.07959e-06
6.41931e-05
1.33274e-06
6.36092e-05
1.00744e-05
6.24369e-05
1.25384e-05
6.4692e-05
9.32459e-06
6.8846e-05
7.72404e-06
7.4406e-05
5.64713e-06
-1.17483e-07
8.60498e-05
-1.83665e-05
-6.2849e-05
-2.72257e-05
-3.99013e-05
-3.99819e-05
1.17865e-05
-2.602e-05
4.48065e-06
-1.94684e-05
-1.67574e-05
-2.1912e-05
-7.1344e-06
-2.37805e-05
3.5386e-07
-2.91604e-05
-7.10012e-06
-4.36625e-05
-1.85545e-05
-6.85006e-05
-2.5171e-05
-9.01924e-05
-1.77356e-05
-0.000111278
-1.05811e-05
-0.000123808
-1.16576e-05
-0.000111738
-2.65898e-05
-7.62083e-05
-4.20824e-05
-1.49188e-05
-6.43691e-05
1.95782e-05
-3.31642e-05
4.01151e-05
-1.04625e-05
5.41461e-05
-1.49263e-06
6.62163e-05
-2.7456e-06
7.24544e-05
1.48597e-06
7.70725e-05
1.02904e-06
-4.58882e-06
8.15438e-05
-3.31999e-05
-2.96491e-05
-3.88633e-05
-3.4238e-05
-1.57571e-05
-1.13197e-05
-4.26805e-06
-7.00832e-06
-9.58508e-06
-1.14402e-05
-1.02269e-05
-6.49245e-06
-5.26991e-06
-4.60312e-06
-4.51826e-06
-7.85173e-06
-9.01812e-06
-1.40547e-05
-1.57708e-05
-1.84183e-05
-1.94843e-05
-1.40221e-05
-3.02089e-05
1.43517e-07
-5.30785e-05
1.12119e-05
-8.26013e-05
2.93303e-06
-9.71118e-05
-2.75719e-05
-0.000101913
-5.95675e-05
-8.58596e-05
-4.92181e-05
-4.24746e-05
-5.38476e-05
1.57005e-06
-4.55372e-05
2.35172e-05
-2.46928e-05
3.87502e-05
-1.37471e-05
5.66336e-05
-1.68544e-05
-2.35465e-05
7.55913e-05
-1.43954e-05
-1.52537e-05
-1.62709e-05
-3.23625e-05
-1.23864e-05
-1.52042e-05
-9.30921e-06
-1.00854e-05
-1.09357e-05
-9.81369e-06
-1.03705e-05
-7.0576e-06
-9.25566e-06
-5.71794e-06
-9.74218e-06
-7.36518e-06
-1.19618e-05
-1.1835e-05
-1.38638e-05
-1.65163e-05
-1.05156e-05
-1.73703e-05
1.38279e-07
-1.05103e-05
4.23329e-06
7.11694e-06
-1.02608e-05
1.74271e-05
-2.77099e-05
-1.01228e-05
-4.02361e-05
-4.70413e-05
-3.91357e-05
-5.03185e-05
-4.52429e-05
-4.77404e-05
-5.41067e-05
-3.66735e-05
-5.86328e-05
-2.01667e-05
-3.56132e-05
-3.67668e-05
1.49121e-07
-5.26167e-05
-5.22515e-05
2.88541e-05
-7.82446e-06
-7.42928e-06
-1.13422e-05
-2.88448e-05
-1.05176e-05
-1.60289e-05
-9.28845e-06
-1.13146e-05
-9.57602e-06
-9.52611e-06
-8.82965e-06
-7.80395e-06
-8.07383e-06
-6.47375e-06
-8.53425e-06
-6.90473e-06
-1.07747e-05
-9.5945e-06
-1.37712e-05
-1.35197e-05
-1.49571e-05
-1.61844e-05
-1.13405e-05
-1.41269e-05
9.37073e-07
-5.16065e-06
1.28292e-05
5.53489e-06
1.30468e-05
-1.03405e-05
6.72754e-06
-4.07221e-05
5.24359e-06
-4.88346e-05
7.8503e-06
-5.03472e-05
1.95713e-05
-4.83945e-05
4.11553e-05
-4.17508e-05
5.42209e-05
-4.98324e-05
5.95416e-05
-5.79374e-05
-3.19929e-05
3.9283e-05
-5.8919e-06
-1.53742e-06
-8.33511e-06
-2.64017e-05
-8.00553e-06
-1.63585e-05
-7.64203e-06
-1.16781e-05
-7.29394e-06
-9.87421e-06
-6.56396e-06
-8.53395e-06
-5.862e-06
-7.1757e-06
-6.07016e-06
-6.69655e-06
-7.73035e-06
-7.93425e-06
-1.04488e-05
-1.08012e-05
-1.26634e-05
-1.39698e-05
-1.17388e-05
-1.50514e-05
-4.7524e-06
-1.21471e-05
7.97997e-06
-7.19752e-06
1.42638e-05
-1.66243e-05
1.02512e-05
-3.67096e-05
5.91894e-06
-4.45024e-05
5.44876e-06
-4.98771e-05
1.08744e-05
-5.38202e-05
2.35844e-05
-5.44609e-05
3.49533e-05
-6.12014e-05
4.9828e-05
-7.28122e-05
-4.84563e-05
6.62915e-05
-4.32076e-06
2.78329e-06
-6.05543e-06
-2.46671e-05
-6.09653e-06
-1.63174e-05
-6.10279e-06
-1.16719e-05
-5.84397e-06
-1.01331e-05
-5.24379e-06
-9.13415e-06
-4.40066e-06
-8.01883e-06
-3.83054e-06
-7.26662e-06
-4.09985e-06
-7.6649e-06
-5.37156e-06
-9.52944e-06
-7.06235e-06
-1.2279e-05
-7.44662e-06
-1.46672e-05
-3.73017e-06
-1.58635e-05
5.86969e-06
-1.67974e-05
1.23256e-05
-2.30802e-05
9.85463e-06
-3.42387e-05
6.54853e-06
-4.11963e-05
3.51583e-06
-4.68444e-05
2.91321e-06
-5.32176e-05
6.2548e-06
-5.78026e-05
1.16702e-05
-6.66169e-05
1.87175e-05
-7.98595e-05
-6.70638e-05
3.73249e-05
-2.91783e-06
5.70108e-06
-4.32052e-06
-2.32645e-05
-4.72461e-06
-1.59134e-05
-4.87602e-06
-1.15206e-05
-4.73943e-06
-1.02697e-05
-4.26286e-06
-9.61074e-06
-3.38609e-06
-8.89558e-06
-2.30401e-06
-8.34866e-06
-1.45383e-06
-8.51503e-06
-1.17876e-06
-9.80448e-06
-1.38444e-06
-1.20733e-05
-1.30193e-06
-1.47497e-05
2.49726e-07
-1.74152e-05
3.89761e-06
-2.04453e-05
6.20736e-06
-2.539e-05
4.35467e-06
-3.23859e-05
1.292e-06
-3.81336e-05
-2.22704e-06
-4.33254e-05
-5.67099e-06
-4.97737e-05
-6.32509e-06
-5.71485e-05
-5.74715e-06
-6.71948e-05
-7.24207e-06
-7.83645e-05
-7.37965e-05
-5.09378e-07
-1.94566e-06
7.6467e-06
-3.14222e-06
-2.2068e-05
-3.67591e-06
-1.53798e-05
-3.95189e-06
-1.12447e-05
-3.95534e-06
-1.02663e-05
-3.66063e-06
-9.90548e-06
-2.98273e-06
-9.57347e-06
-1.94877e-06
-9.38259e-06
-8.15688e-07
-9.64807e-06
6.73339e-08
-1.06875e-05
5.69822e-07
-1.25758e-05
8.71664e-07
-1.50515e-05
1.29098e-06
-1.78345e-05
1.92779e-06
-2.10821e-05
1.71926e-06
-2.51814e-05
-5.0217e-07
-3.01645e-05
-3.90302e-06
-3.47327e-05
-7.92259e-06
-3.93058e-05
-1.23492e-05
-4.53471e-05
-1.64535e-05
-5.30443e-05
-2.09788e-05
-6.26696e-05
-2.83229e-05
-7.10204e-05
-7.08357e-05
-3.12837e-05
-1.32251e-06
8.96916e-06
-2.36342e-06
-2.10271e-05
-2.95656e-06
-1.47867e-05
-3.32304e-06
-1.08783e-05
-3.46808e-06
-1.01213e-05
-3.38292e-06
-9.99066e-06
-3.02462e-06
-9.93177e-06
-2.37525e-06
-1.00319e-05
-1.55571e-06
-1.04676e-05
-8.17719e-07
-1.14254e-05
-3.97211e-07
-1.29963e-05
-3.55249e-07
-1.50935e-05
-6.31372e-07
-1.75584e-05
-1.28143e-06
-2.0432e-05
-2.6811e-06
-2.37817e-05
-5.15715e-06
-2.76883e-05
-8.25215e-06
-3.16377e-05
-1.19341e-05
-3.56238e-05
-1.67982e-05
-4.04831e-05
-2.32633e-05
-4.65792e-05
-3.18415e-05
-5.40914e-05
-4.19035e-05
-6.09583e-05
-6.31539e-05
-4.95853e-05
-9.27059e-07
9.89618e-06
-1.8521e-06
-2.01021e-05
-2.49356e-06
-1.41453e-05
-2.9383e-06
-1.04336e-05
-3.20503e-06
-9.85462e-06
-3.31245e-06
-9.88325e-06
-3.25833e-06
-9.98589e-06
-3.04264e-06
-1.02476e-05
-2.72557e-06
-1.07847e-05
-2.46067e-06
-1.16904e-05
-2.4385e-06
-1.30185e-05
-2.7843e-06
-1.47477e-05
-3.51446e-06
-1.68282e-05
-4.69661e-06
-1.92498e-05
-6.43318e-06
-2.2045e-05
-8.90918e-06
-2.52123e-05
-1.20177e-05
-2.85292e-05
-1.5673e-05
-3.19685e-05
-2.04718e-05
-3.56842e-05
-2.72374e-05
-3.98136e-05
-3.6895e-05
-4.44338e-05
-4.92796e-05
-4.85738e-05
-5.06854e-05
-6.1748e-05
-7.05401e-07
1.06016e-05
-1.54218e-06
-1.92653e-05
-2.21612e-06
-1.34713e-05
-2.73031e-06
-9.91939e-06
-3.10777e-06
-9.47716e-06
-3.37643e-06
-9.61459e-06
-3.55863e-06
-9.80368e-06
-3.67862e-06
-1.01276e-05
-3.78351e-06
-1.06798e-05
-3.96311e-06
-1.15108e-05
-4.3369e-06
-1.26447e-05
-5.00155e-06
-1.4083e-05
-6.01621e-06
-1.58135e-05
-7.43946e-06
-1.78265e-05
-9.37217e-06
-2.01123e-05
-1.19606e-05
-2.26238e-05
-1.52302e-05
-2.52596e-05
-1.91966e-05
-2.80021e-05
-2.40604e-05
-3.08205e-05
-3.0232e-05
-3.3642e-05
-3.84777e-05
-3.61881e-05
-4.92865e-05
-3.7765e-05
-3.78837e-05
-6.20882e-05
-5.95443e-07
1.1197e-05
-1.37541e-06
-1.84853e-05
-2.07687e-06
-1.27699e-05
-2.64994e-06
-9.3463e-06
-3.12275e-06
-9.00433e-06
-3.52732e-06
-9.21e-06
-3.88945e-06
-9.44156e-06
-4.24152e-06
-9.77558e-06
-4.62995e-06
-1.02914e-05
-5.1168e-06
-1.1024e-05
-5.77555e-06
-1.19859e-05
-6.67834e-06
-1.31802e-05
-7.89292e-06
-1.45989e-05
-9.48881e-06
-1.62306e-05
-1.15558e-05
-1.80453e-05
-1.41948e-05
-1.99847e-05
-1.74845e-05
-2.197e-05
-2.15344e-05
-2.39522e-05
-2.64617e-05
-2.58933e-05
-3.23857e-05
-2.77181e-05
-3.94728e-05
-2.9101e-05
-4.77688e-05
-2.9469e-05
-2.84197e-05
-5.72328e-05
-5.48165e-07
1.17452e-05
-1.30148e-06
-1.7732e-05
-2.03179e-06
-1.20395e-05
-2.65452e-06
-8.72353e-06
-3.20763e-06
-8.45119e-06
-3.72586e-06
-8.69176e-06
-4.23173e-06
-8.93571e-06
-4.75462e-06
-9.25273e-06
-5.3361e-06
-9.70996e-06
-6.02641e-06
-1.03337e-05
-6.88198e-06
-1.11304e-05
-7.96224e-06
-1.21e-05
-9.32898e-06
-1.32321e-05
-1.10495e-05
-1.451e-05
-1.3192e-05
-1.59027e-05
-1.58238e-05
-1.73529e-05
-1.90025e-05
-1.87913e-05
-2.28021e-05
-2.01528e-05
-2.73218e-05
-2.13736e-05
-3.26869e-05
-2.2353e-05
-3.89436e-05
-2.28444e-05
-4.5909e-05
-2.25036e-05
-2.10749e-05
-5.32539e-05
-5.31588e-07
1.22768e-05
-1.28433e-06
-1.69792e-05
-2.04396e-06
-1.12798e-05
-2.70881e-06
-8.05863e-06
-3.3276e-06
-7.83237e-06
-3.93915e-06
-8.08021e-06
-4.56174e-06
-8.31314e-06
-5.21901e-06
-8.59549e-06
-5.94553e-06
-8.98347e-06
-6.78417e-06
-9.49506e-06
-7.78173e-06
-1.01328e-05
-8.98916e-06
-1.08925e-05
-1.04601e-05
-1.17612e-05
-1.22472e-05
-1.27229e-05
-1.44109e-05
-1.3739e-05
-1.70001e-05
-1.47638e-05
-2.0062e-05
-1.57294e-05
-2.36466e-05
-1.65682e-05
-2.78011e-05
-1.72192e-05
-3.25658e-05
-1.75884e-05
-3.79278e-05
-1.74824e-05
-4.37695e-05
-1.66619e-05
-1.49904e-05
-4.9854e-05
-5.25866e-07
1.28027e-05
-1.29541e-06
-1.62096e-05
-2.08592e-06
-1.04893e-05
-2.78663e-06
-7.35791e-06
-3.45843e-06
-7.16057e-06
-4.14231e-06
-7.39634e-06
-4.8556e-06
-7.59988e-06
-5.61745e-06
-7.83367e-06
-6.45383e-06
-8.14713e-06
-7.40136e-06
-8.54755e-06
-8.4998e-06
-9.03442e-06
-9.79127e-06
-9.60103e-06
-1.13139e-05
-1.02385e-05
-1.31179e-05
-1.09189e-05
-1.52445e-05
-1.16125e-05
-1.77322e-05
-1.22761e-05
-2.06136e-05
-1.28481e-05
-2.39105e-05
-1.32714e-05
-2.76513e-05
-1.34785e-05
-3.18414e-05
-1.33983e-05
-3.64376e-05
-1.28863e-05
-4.13246e-05
-1.17749e-05
-9.98977e-06
-4.63252e-05
-5.19828e-07
1.33226e-05
-1.31972e-06
-1.54097e-05
-2.13886e-06
-9.67013e-06
-2.86815e-06
-6.62862e-06
-3.58011e-06
-6.44862e-06
-4.31814e-06
-6.65832e-06
-5.09685e-06
-6.82118e-06
-5.93173e-06
-6.99882e-06
-6.84659e-06
-7.23227e-06
-7.86853e-06
-7.52562e-06
-9.02836e-06
-7.87458e-06
-1.03593e-05
-8.27007e-06
-1.18996e-05
-8.69818e-06
-1.36821e-05
-9.13644e-06
-1.5736e-05
-9.55858e-06
-1.80929e-05
-9.91927e-06
-2.07636e-05
-1.01775e-05
-2.3773e-05
-1.0262e-05
-2.71196e-05
-1.0132e-05
-3.07893e-05
-9.72865e-06
-3.47302e-05
-8.94543e-06
-3.88439e-05
-7.66115e-06
-5.84368e-06
-4.299e-05
-5.0732e-07
1.38299e-05
-1.34435e-06
-1.45727e-05
-2.18906e-06
-8.82545e-06
-2.93911e-06
-5.8786e-06
-3.68001e-06
-5.70772e-06
-4.45589e-06
-5.88245e-06
-5.27872e-06
-5.99836e-06
-6.16135e-06
-6.11621e-06
-7.12303e-06
-6.27062e-06
-8.18624e-06
-6.46244e-06
-9.37608e-06
-6.68474e-06
-1.07191e-05
-6.92707e-06
-1.22438e-05
-7.17341e-06
-1.39756e-05
-7.40466e-06
-1.59351e-05
-7.59909e-06
-1.81428e-05
-7.71167e-06
-2.06127e-05
-7.7076e-06
-2.33377e-05
-7.53701e-06
-2.63183e-05
-7.15147e-06
-2.95283e-05
-6.51874e-06
-3.29126e-05
-5.56109e-06
-3.63868e-05
-4.187e-06
-2.39066e-06
-3.98398e-05
-4.85952e-07
1.43158e-05
-1.36174e-06
-1.3697e-05
-2.2263e-06
-7.96093e-06
-2.98938e-06
-5.11555e-06
-3.74876e-06
-4.94835e-06
-4.54839e-06
-5.08283e-06
-5.39756e-06
-5.1492e-06
-6.30658e-06
-5.20721e-06
-7.29138e-06
-5.28583e-06
-8.37049e-06
-5.38335e-06
-9.56402e-06
-5.4912e-06
-1.08933e-05
-5.59779e-06
-1.23789e-05
-5.68778e-06
-1.404e-05
-5.74357e-06
-1.58951e-05
-5.74391e-06
-1.795e-05
-5.65685e-06
-2.02115e-05
-5.44614e-06
-2.26764e-05
-5.07207e-06
-2.53286e-05
-4.49933e-06
-2.81402e-05
-3.70708e-06
-3.10592e-05
-2.64215e-06
-3.40131e-05
-1.2331e-06
5.01665e-07
-3.69054e-05
-4.57061e-07
1.47729e-05
-1.36564e-06
-1.27884e-05
-2.24162e-06
-7.08499e-06
-3.01033e-06
-4.34685e-06
-3.77905e-06
-4.17962e-06
-4.59033e-06
-4.27153e-06
-5.4509e-06
-4.28864e-06
-6.36908e-06
-4.28904e-06
-7.358e-06
-4.29694e-06
-8.43316e-06
-4.3082e-06
-9.61069e-06
-4.31366e-06
-1.09067e-05
-4.30172e-06
-1.23365e-05
-4.25794e-06
-1.39147e-05
-4.16532e-06
-1.56536e-05
-4.00502e-06
-1.75577e-05
-3.75271e-06
-1.9626e-05
-3.37782e-06
-2.185e-05
-2.84815e-06
-2.42115e-05
-2.13774e-06
-2.66835e-05
-1.23512e-06
-2.92161e-05
-1.09519e-07
-3.17438e-05
1.29457e-06
2.96817e-06
-3.42103e-05
-4.20395e-07
1.51932e-05
-1.34969e-06
-1.18592e-05
-2.22696e-06
-6.20772e-06
-2.99491e-06
-3.57891e-06
-3.7647e-06
-3.40983e-06
-4.57688e-06
-3.45934e-06
-5.43683e-06
-3.42871e-06
-6.35136e-06
-3.37452e-06
-7.3315e-06
-3.31681e-06
-8.38768e-06
-3.252e-06
-9.53274e-06
-3.16855e-06
-1.07814e-05
-3.05295e-06
-1.21452e-05
-2.89412e-06
-1.36341e-05
-2.67638e-06
-1.52553e-05
-2.38373e-06
-1.70095e-05
-1.99843e-06
-1.88953e-05
-1.49208e-06
-2.09008e-05
-8.42561e-07
-2.30095e-05
-2.90474e-08
-2.51954e-05
9.50831e-07
-2.74146e-05
2.1097e-06
-2.96126e-05
3.49251e-06
5.09498e-06
-3.17394e-05
-3.76825e-07
1.557e-05
-1.31025e-06
-1.09258e-05
-2.17779e-06
-5.34018e-06
-2.93807e-06
-2.81861e-06
-3.70186e-06
-2.64604e-06
-4.50607e-06
-2.65514e-06
-5.35311e-06
-2.58168e-06
-6.25034e-06
-2.47729e-06
-7.2063e-06
-2.36084e-06
-8.23123e-06
-2.22702e-06
-9.33523e-06
-2.06447e-06
-1.05287e-05
-1.85941e-06
-1.18193e-05
-1.60334e-06
-1.32143e-05
-1.2813e-06
-1.47192e-05
-8.7874e-07
-1.63347e-05
-3.82903e-07
-1.80499e-05
2.23219e-07
-1.98605e-05
9.68076e-07
-2.17507e-05
1.86117e-06
-2.36984e-05
2.89849e-06
-2.56647e-05
4.07607e-06
-2.76067e-05
5.4345e-06
6.97054e-06
-2.94823e-05
-3.25709e-07
1.58957e-05
-1.24534e-06
-1.00061e-05
-2.09027e-06
-4.49524e-06
-2.83656e-06
-2.07232e-06
-3.58491e-06
-1.89769e-06
-4.37063e-06
-1.86943e-06
-5.19709e-06
-1.75521e-06
-6.06906e-06
-1.60531e-06
-6.99455e-06
-1.4353e-06
-7.98165e-06
-1.23983e-06
-9.03823e-06
-1.00778e-06
-1.01674e-05
-7.30109e-07
-1.13793e-05
-3.91299e-07
-1.26783e-05
1.77443e-08
-1.40689e-05
5.12003e-07
-1.55493e-05
1.09753e-06
-1.71175e-05
1.7915e-06
-1.8756e-05
2.60663e-06
-2.04565e-05
3.56164e-06
-2.22072e-05
4.64917e-06
-2.39782e-05
5.84711e-06
-2.57204e-05
7.17659e-06
8.66407e-06
-2.74139e-05
-2.60917e-07
1.61566e-05
-1.15418e-06
-9.11281e-06
-1.9698e-06
-3.67962e-06
-2.69383e-06
-1.3483e-06
-3.41889e-06
-1.17263e-06
-4.1781e-06
-1.11021e-06
-4.97501e-06
-9.5827e-07
-5.81201e-06
-7.68262e-07
-6.69456e-06
-5.52658e-07
-7.63224e-06
-3.02023e-07
-8.62968e-06
-1.02136e-08
-9.69293e-06
3.33246e-07
-1.08273e-05
7.43145e-07
-1.20363e-05
1.22683e-06
-1.3314e-05
1.78979e-06
-1.46664e-05
2.45005e-06
-1.60886e-05
3.21373e-06
-1.75805e-05
4.09857e-06
-1.91266e-05
5.10776e-06
-2.0707e-05
6.22961e-06
-2.23109e-05
7.45091e-06
-2.39136e-05
8.77926e-06
1.02372e-05
-2.54867e-05
-1.73047e-07
1.63297e-05
-1.04093e-06
-8.24493e-06
-1.82328e-06
-2.89727e-06
-2.51632e-06
-6.55268e-07
-3.2074e-06
-4.81558e-07
-3.92907e-06
-3.88511e-07
-4.68361e-06
-2.03692e-07
-5.47499e-06
2.32005e-08
-6.30794e-06
2.80419e-07
-7.18841e-06
5.78577e-07
-8.12134e-06
9.22821e-07
-9.10903e-06
1.32102e-06
-1.01579e-05
1.79206e-06
-1.12649e-05
2.33391e-06
-1.2436e-05
2.96101e-06
-1.36694e-05
3.68353e-06
-1.49661e-05
4.51051e-06
-1.63105e-05
5.44294e-06
-1.77039e-05
6.50116e-06
-1.91474e-05
7.67311e-06
-2.06311e-05
8.93457e-06
-2.21132e-05
1.02613e-05
1.17251e-05
-2.36013e-05
-5.83895e-08
1.63881e-05
-9.11681e-07
-7.39164e-06
-1.66006e-06
-2.14891e-06
-2.31486e-06
-4.69747e-10
-2.96356e-06
1.6714e-07
-3.63822e-06
2.86199e-07
-4.3428e-06
5.00939e-07
-5.07773e-06
7.58222e-07
-5.84908e-06
1.05189e-06
-6.66058e-06
1.39019e-06
-7.51678e-06
1.7791e-06
-8.41971e-06
2.22402e-06
-9.36899e-06
2.74141e-06
-1.03714e-05
3.3364e-06
-1.14267e-05
4.01638e-06
-1.25344e-05
4.7913e-06
-1.36892e-05
5.66523e-06
-1.4894e-05
6.64776e-06
-1.61478e-05
7.75492e-06
-1.7445e-05
8.97027e-06
-1.87848e-05
1.02744e-05
-2.01704e-05
1.16469e-05
1.31393e-05
-2.15846e-05
8.13152e-08
1.63068e-05
-7.72042e-07
-6.53829e-06
-1.49351e-06
-1.42745e-06
-2.10238e-06
6.08403e-07
-2.70234e-06
7.67121e-07
-3.3272e-06
9.1111e-07
-3.97303e-06
1.14682e-06
-4.64463e-06
1.4299e-06
-5.34539e-06
1.75275e-06
-6.07497e-06
2.11986e-06
-6.84018e-06
2.54438e-06
-7.64497e-06
3.02886e-06
-8.48893e-06
3.58542e-06
-9.37621e-06
4.22375e-06
-1.02984e-05
4.93859e-06
-1.12642e-05
5.75718e-06
-1.22734e-05
6.67444e-06
-1.33246e-05
7.69895e-06
-1.44061e-05
8.83635e-06
-1.55341e-05
1.00982e-05
-1.67169e-05
1.14571e-05
-1.79517e-05
1.28817e-05
1.44298e-05
-1.92423e-05
2.39531e-07
1.60673e-05
-6.30206e-07
-5.66856e-06
-1.33133e-06
-7.26326e-07
-1.89816e-06
1.17523e-06
-2.44446e-06
1.31345e-06
-3.01849e-06
1.48517e-06
-3.60645e-06
1.73482e-06
-4.2104e-06
2.03391e-06
-4.83527e-06
2.37769e-06
-5.48388e-06
2.76852e-06
-6.15748e-06
3.21801e-06
-6.85606e-06
3.72746e-06
-7.58824e-06
4.31763e-06
-8.34158e-06
4.97712e-06
-9.13097e-06
5.72802e-06
-9.94359e-06
6.56981e-06
-1.0786e-05
7.51688e-06
-1.16475e-05
8.56044e-06
-1.25364e-05
9.72521e-06
-1.34564e-05
1.10181e-05
-1.44112e-05
1.24118e-05
-1.54276e-05
1.3898e-05
1.55032e-05
-1.6501e-05
4.06699e-07
1.56605e-05
-4.98938e-07
-4.76293e-06
-1.19312e-06
-3.21432e-08
-1.71271e-06
1.69482e-06
-2.21996e-06
1.82072e-06
-2.74561e-06
2.01085e-06
-3.28278e-06
2.27201e-06
-3.83037e-06
2.58155e-06
-4.38708e-06
2.93443e-06
-4.95783e-06
3.33929e-06
-5.54517e-06
3.80533e-06
-6.15352e-06
4.33579e-06
-6.7746e-06
4.9387e-06
-7.41097e-06
5.61349e-06
-8.0619e-06
6.37894e-06
-8.72548e-06
7.23337e-06
-9.39207e-06
8.18347e-06
-1.00671e-05
9.2355e-06
-1.07476e-05
1.04057e-05
-1.14248e-05
1.16952e-05
-1.20975e-05
1.30844e-05
-1.28109e-05
1.46114e-05
1.62464e-05
-1.35542e-05
5.95672e-07
1.50649e-05
-3.77038e-07
-3.79021e-06
-1.07741e-06
6.68216e-07
-1.57041e-06
2.18783e-06
-2.04554e-06
2.29587e-06
-2.53728e-06
2.50261e-06
-3.0364e-06
2.77116e-06
-3.54016e-06
3.08535e-06
-4.04936e-06
3.44366e-06
-4.56532e-06
3.85526e-06
-5.08922e-06
4.3292e-06
-5.62095e-06
4.8675e-06
-6.15712e-06
5.47486e-06
-6.70102e-06
6.15738e-06
-7.24424e-06
6.92216e-06
-7.78295e-06
7.77205e-06
-8.30454e-06
8.70504e-06
-8.82002e-06
9.75094e-06
-9.28789e-06
1.08734e-05
-9.73809e-06
1.21454e-05
-1.01483e-05
1.34946e-05
-1.05259e-05
1.49889e-05
1.65985e-05
-1.08782e-05
7.87575e-07
1.42773e-05
-2.71622e-07
-2.73101e-06
-9.9341e-07
1.38999e-06
-1.46502e-06
2.65945e-06
-1.92694e-06
2.75781e-06
-2.40768e-06
2.98337e-06
-2.88294e-06
3.24645e-06
-3.36287e-06
3.56532e-06
-3.84457e-06
3.92539e-06
-4.32924e-06
4.33992e-06
-4.81457e-06
4.81452e-06
-5.30377e-06
5.35668e-06
-5.79331e-06
5.9644e-06
-6.27352e-06
6.63758e-06
-6.75014e-06
7.39874e-06
-7.1945e-06
8.21636e-06
-7.62924e-06
9.13972e-06
-8.01273e-06
1.01344e-05
-8.35571e-06
1.12164e-05
-8.6278e-06
1.24174e-05
-8.8352e-06
1.37019e-05
-8.93539e-06
1.5089e-05
1.66185e-05
-8.95551e-06
9.57636e-07
1.33197e-05
-1.84305e-07
-1.58907e-06
-9.25192e-07
2.13087e-06
-1.3872e-06
3.12147e-06
-1.85175e-06
3.22237e-06
-2.32474e-06
3.45638e-06
-2.796e-06
3.71775e-06
-3.26445e-06
4.03381e-06
-3.73337e-06
4.39433e-06
-4.20362e-06
4.81018e-06
-4.67585e-06
5.28673e-06
-5.14496e-06
5.82577e-06
-5.61009e-06
6.42951e-06
-6.06865e-06
7.09608e-06
-6.50419e-06
7.83422e-06
-6.92648e-06
8.63858e-06
-7.303e-06
9.51618e-06
-7.62287e-06
1.04542e-05
-7.8931e-06
1.14865e-05
-8.06987e-06
1.25941e-05
-8.14798e-06
1.378e-05
-8.10222e-06
1.50432e-05
1.64228e-05
-7.90652e-06
1.08081e-06
1.22389e-05
-1.23076e-07
-3.85201e-07
-8.60512e-07
2.86829e-06
-1.31556e-06
3.57651e-06
-1.78563e-06
3.69244e-06
-2.25115e-06
3.92191e-06
-2.71895e-06
4.18561e-06
-3.17998e-06
4.49491e-06
-3.64206e-06
4.85647e-06
-4.10542e-06
5.27355e-06
-4.56896e-06
5.75025e-06
-5.0297e-06
6.28646e-06
-5.48494e-06
6.88468e-06
-5.92887e-06
7.53992e-06
-6.35331e-06
8.25856e-06
-6.74623e-06
9.03142e-06
-7.10035e-06
9.87026e-06
-7.41184e-06
1.07656e-05
-7.64907e-06
1.17238e-05
-7.7875e-06
1.27325e-05
-7.81821e-06
1.38107e-05
-7.70715e-06
1.49321e-05
1.61403e-05
-7.42474e-06
1.14686e-06
1.1092e-05
-8.38738e-08
8.45495e-07
-7.79066e-07
3.56346e-06
-1.22538e-06
4.02283e-06
-1.68901e-06
4.15608e-06
-2.14287e-06
4.37581e-06
-2.59067e-06
4.63347e-06
-3.03962e-06
4.94394e-06
-3.48756e-06
5.30447e-06
-3.93597e-06
5.72197e-06
-4.38259e-06
6.19685e-06
-4.82554e-06
6.72937e-06
-5.26063e-06
7.31972e-06
-5.68433e-06
7.96354e-06
-6.08612e-06
8.66028e-06
-6.46276e-06
9.408e-06
-6.79904e-06
1.02065e-05
-7.08806e-06
1.10546e-05
-7.30656e-06
1.19422e-05
-7.4265e-06
1.28525e-05
-7.45026e-06
1.38344e-05
-7.33203e-06
1.48139e-05
1.58417e-05
-7.03347e-06
1.14788e-06
9.94412e-06
-5.0973e-08
2.0443e-06
-6.87379e-07
4.19987e-06
-1.10594e-06
4.44141e-06
-1.54049e-06
4.59067e-06
-1.96723e-06
4.80259e-06
-2.37808e-06
5.04437e-06
-2.80267e-06
5.36857e-06
-3.21884e-06
5.72067e-06
-3.63168e-06
6.13483e-06
-4.04412e-06
6.6093e-06
-4.45315e-06
7.1384e-06
-4.85315e-06
7.71971e-06