/*--------------------------------*- C++ -*----------------------------------*\
  =========                 |
  \\      /  F ield         | OpenFOAM: The Open Source CFD Toolbox
   \\    /   O peration     | Website:  https://openfoam.org
    \\  /    A nd           | Version:  13
     \\/     M anipulation  |
\*---------------------------------------------------------------------------*/
FoamFile
{
    format      ascii;
    class       volScalarField;
    location    "0.5";
    object      rho;
}
// * * * * * * * * * * * * * * * * * * * * * * * * * * * * * * * * * * * * * //

dimensions      [1 -3 0 0 0 0 0];

internalField   nonuniform List<scalar> 
2268
(
1000
1000
1000
1000
1000
1000
1000
1000
1000
1000
1000
1000
1000
1000
1000
1000
1000
1000
996.539
901.256
901.207
966.158
998.629
1000
1000
1000
1000
1000
1000
1000
1000
1000
1000
1000
1000
1000
1000
1000
1000
1000
1000
1000
974.11
901.746
971.082
998.631
1000
1000
1000
1000
1000
1000
1000
1000
1000
1000
1000
1000
1000
1000
1000
1000
1000
1000
1000
999.995
902.447
961.413
998.633
1000
1000
1000
1000
1000
1000
1000
1000
1000
1000
1000
1000
1000
1000
1000
1000
1000
1000
1000
1000
952.413
979.185
998.892
1000
1000
1000
1000
1000
1000
1000
1000
1000
1000
1000
1000
1000
1000
1000
1000
1000
1000
1000
1000
999.997
999.638
999.641
1000
1000
1000
1000
1000
999.999
999.999
999.999
1000
1000
1000
1000
1000
1000
1000
1000
1000
1000
1000
1000
1000
1000
999.661
1000
1000
1000
999.998
999.996
999.988
999.987
999.991
999.995
999.998
999.999
1000
1000
1000
1000
1000
1000
1000
1000
1000
1000
1000
999.664
1000
1000
999.988
999.941
999.905
999.726
999.795
999.883
999.934
999.962
999.979
999.989
999.994
999.998
1000
1000
1000
1000
1000
1000
1000
1000
999.669
5.96785
5.20692
4.67117
4.55863
3.65538
1.11033
1.00211
1.00088
1.00076
1.00077
1.04643
1.27851
6.32398
111.748
226.907
316.499
436.358
528.805
448.116
13.5539
28.8458
19.1612
15.0599
12.435
7.31847
1.13615
1.00106
1.00094
1.00844
1.20158
11.6421
19.6376
9.62204
1.91992
40.3729
282.277
540.958
659.34
361.103
39.4322
10.0103
2.47205
3.26264
7.69876
4.16783
1.04266
1.00382
1.01917
4.41823
9.04719
2.52367
1.06394
1.35468
1.98371
4.89148
143.993
659.852
650.162
1.04691
1.02049
1.01668
1.0145
2.28358
4.17665
1.38371
1.08063
2.94502
4.55989
3.63239
1.02947
1.03335
1.03362
1.26848
2.37672
90.8247
659.224
657.861
1.26461
1.02235
1.01807
1.01264
1.26583
3.02788
1.43174
1.60953
4.70353
4.59987
1.8262
1.02807
1.01902
1.00431
1.03989
1.39638
46.8574
654.025
738.018
19.0187
1.02899
1.01179
1.01201
1.11516
1.39261
1.46332
3.85441
4.79514
4.70353
2.44317
1.02528
1.02303
1.00139
1.00282
1.071
18.4949
430.156
966.527
612.168
1.42273
1.01329
1.00302
1.02284
1.02899
1.43399
4.79514
4.8258
4.79514
2.7938
1.01806
1.01489
1.00104
1.00049
1.00201
6.2606
99.6596
999.972
997.296
112.48
1.01245
1.00258
1.00194
1.00436
1.22719
3.50483
4.81476
4.81577
1.58285
1.14837
1.00854
1.00093
1.00036
1.00042
7.12749
566.131
999.996
999.964
977.368
933.028
942.34
969.062
987.066
994.956
998.714
999.255
999.409
999.559
999.706
999.906
999.964
999.999
1000
1000
1000
1000
1000
1000
999.84
872.421
632.863
370.443
240.326
294.289
391.323
448.06
497.113
572.011
658.142
744.186
828.16
904.999
963.593
999.982
999.999
1000
1000
1000
1000
1000
1000
999.98
88.1054
1
1
1
1
1
1
1
1
17.8407
49.8624
95.4513
161.213
259.57
415.743
654.869
944.597
1000
1000
1000
1000
1000
1000
1
1
1
1
1
1
1
1
1
1
1
1
1.00002
1.00004
1.0005
23.6874
95.7844
267.224
550.704
914.259
1000
999.998
999.997
1
1
1
1
1
1
1
1
1
1.00002
1.00005
1.00002
1.00002
1.00002
1.00004
1.0005
1.00777
6.01273
36.8307
91.6589
212.408
429.796
765.764
1
1
1
1
1
1
1
1
1
1.00025
1.00052
1.00034
1.00005
1.00005
1.01544
1.0553
1.05347
1.0537
1.05384
1.05493
1.48406
10.169
32.0525
1
1
1
1
1
1
1
1
1.00001
1.00037
1.00052
1.00052
1.00025
1.0001
1.00102
1.07379
1.06192
1.05481
1.10559
1.11952
1.00568
1.00679
1.00657
1
1
1
1
1
1
1
1
1
1.00012
1.00045
1.00025
1.00004
1.00013
1.00037
1.00199
1
1
1
1
1.00519
1.07516
1.0584
1
1
1
1
1
1
1
1
1
1
1
1
1
1.00053
1.00132
1
1
1
1
1
1.04107
1.31872
1.335
1
1
1
1
1
1
1
1
1
1
1
1
1
1.0004
1.00107
1.00011
1
1
1
1.00102
1.04589
1.18091
1.42821
1
1
1
1
1
1
1
1
1
1
1
1
1.00001
1
1
1
1
1
1
1
1
1.00001
1.14162
1
1
1
1
1
1
1
1
1
1
1
1
1
1
1
1
1
1
1
1
1
1
1
1
1
1
1
1
1
1
1
1
1
1
1
1
1
1
1
1
1
1
1
1
1
1
1
1
1
1
1
1
1
1
1
1
1
1
1
1
1
1
1
1
1
1
1
1
1
1
1
1
1
1
1
1
1
1
1
1
1
1
1
1
1
1
1
1
1
1
1
1
1
1
1
1
1
1
1
1
1
1
1
1
1
1
1
1
1
1
1
1
1
1
1
1
1
1
1
1
1
1
1
1
1
1
1
1
1
1
1
1
1
1
1
1
1
1
1
1
1
1
1
1
1
1
1
1
1
1
1
1
1
1
1
1
1
1
1
1
1
1
1
1
1
1
1
1
1
1
1
1
1
1
1
1
1
1
1
1
1
1
1
1
1
1
1
1
1
1
1
1
1
1
1
1
1
1
1
1
1
1
1
1
1
1
1
1
1
1
1
1
1
1
1
1
1
1
1
1
1
1
1
1
1
1
1
1
1
1
1
1
1
1
1
1
1
1
1
1
1
1
1
1
1
1
1
1
1
1
1
1
1
1
1
1
1
1
1
1
1
1
1
1
1
1
1
1
1
1
1
1
1
1
1
1
1
1
1
1
1
1
1
1
1
1
1
1
1
1
1
1
1
1
1
1
1
1
1
1
1
1
1
1
1
1
1
1
1
1
1
1
1
1
1
1
1
1
1
1
1
1
1
1
1
1
1
1
1
1
1
1
1
1
1
1
1
1
1
1
1
1
1
1
1
1
1
1
1
1
1
1
1
1
1
1
1
1
1
1
1
1
1
1
1
1
1
1
1
1
1
1
1
1
1
1
1
1
1
1
1
1
1
1
1
1
1
1
1
1
1
1
1
1
1
1
1
1
1
1
1
1
1
1
1
1
1
1
1
1
1
1
1
1
1
1
1
1
1
1
1
1
1
1
1
1
1
1
1
1
1
1
1
1
1
1
1
1
1
1
1
1
1
1
1
1
1
1
1
1
1
1
1
1
1
1
1
1
1
1
1
1
1
1
1
1
1
1
1
1
1
1
1
1
1
1
1
1
1
1
1
1
1
1
1
1
1
1
1
1
1
1
1
1
1
1
1
1
1
1
1
1
1
1
1
1
1
1
1
1
1
1
1
1
1
1
1
1
1
1
1
1
1
1
1
1
1
1
1
1
1
1
1
1
1
1
1
1
1
1
1
1
1
1
1
1
1
1
1
1
1
1
1
1
1
1
1
1
1
1
1
1
1
1
1
1
1
1
1
1
1
1
1
1
1
1
1
1
1
1
1
1
1
1
1
1
1
1
1
1
1
1
1
1
1
1
1
1
1
1
1
1
1
1
1
1
1
1
1
1
1
1
1
1
1
1
1
1
1
1
1
1
1
1
1
1
1
1
1
1
1
1
1
1
1
1
1
1
1
1
1
1
1
1
1
1
1
1
1
1
1
1
1
1
1
1
1
1
1
1
1
1
1
1
1
1
1
1
1
1
1
1
1
1
1
1
1
1
1
1
1
1
1
1
1
1
1
1
1
1
1
1
1
1
1
1
1
1
1
1
1
1
1
1
1
1
1
1
1
1
1
1
1
999.526
999.525
999.525
999.637
999.968
999.998
999.733
999.64
1000
999.999
999.999
999.978
999.981
999.981
999.988
999.98
944.019
969.561
983.381
993.545
69.5977
114.549
197.441
398.913
1.00657
1.00657
1.00695
1.05716
1.08891
1.08519
1.09543
1.10325
1.22052
1.11859
1.10029
1.10183
1.4282
1.32986
1.11902
1.10579
1.42899
1.42977
1.42977
1.42976
1.04555
1.34108
1.42426
1.1851
1
1
1
1
1
1
1
1
1
1
1
1
1
1
1
1
1
1
1
1
1
1
1
1
1
1
1
1
1
1
1
1
1
1
1
1
1
1
1
1
1
1
1
1
1
1
1
1
1
1
1
1
1
1
1
1
1
1
1
1
1
1
1
1
1
1
1
1
1
1
1
1
1
1
1
1
1
1
1
1
1
1
1
1
1
1
1
1
1
1
1
1
1
1
1
1
1
1
1
1
1
1
1
1
1
1
1
1
1
1
1
1
1
1
1
1
1
1
1
1
999.962
999.987
600.674
14.8607
1.01514
1.00194
1.00194
1.028
1.07847
2.67668
2.87047
1.54206
1.03059
1.00255
1.00031
1.00019
1.00032
1.00042
805.896
999.81
999.987
943.341
119.031
1.0108
1.00225
1.00235
1.00304
1.01424
1.04653
1.02847
1.05095
1.01736
1.00024
1.0001
1.00009
1.00011
1.00043
813.981
999.97
999.987
981.865
153.674
1.04135
1.00235
1.0027
1.00173
1.00292
1.00494
1.00495
1.00562
1.00113
1.00006
1.00006
1.00009
1.00011
1.00388
815.911
999.987
999.987
998.115
165.431
1.06037
1.00229
1.00245
1.00123
1.0007
1.00061
1.0006
1.00046
1.00008
1.00001
1.00016
1.00009
1.00009
8.89872
884.618
999.325
999.984
999.98
511.077
10.697
1.00072
1.00054
1.00055
1.00044
1.00025
1.00008
1.00003
1
1
1.00165
1.0022
1.00001
330.78
930.801
851.296
998.074
999.979
970.714
393.789
1.00229
7.5648
1.43894
1.01037
1.00023
1.00003
1.00001
1
1
1
1
1.00001
686.046
942.678
38.3441
390.25
955.608
984.001
983.986
842.067
457.488
1.00222
1.00022
1.00003
1.00001
1.00001
1
147.63
136.829
20.5202
186.452
885.093
943.511
1.10462
1.10755
98.3375
500.321
976.298
974.098
971.536
843.718
520.233
158.867
140.654
275.287
456.223
756.213
809.796
767.549
845.799
943.466
943.592
1.10586
1.10731
1.10745
14.4936
162.424
460.519
815.137
858.422
858.429
853.702
868.617
914.595
935.961
939.615
941.82
943.294
943.575
943.592
943.592
1.10726
1.10743
1.10734
1.10762
1.11145
5.32746
71.0809
249.57
430.772
566.846
684.303
747.746
740.431
696.389
585.46
604.753
778.573
942.934
943.592
1.32245
1.18142
1.4034
1.43405
1.43211
1.3192
1.00047
1.00844
3.51242
25.5153
67.4179
96.7124
89.8985
58.4852
35.9013
39.9932
207.021
824.963
943.391
1.23684
1.43584
1.43553
1.40004
1.09164
1.00375
1.00012
1.0074
1.04993
1.15908
1.85531
3.6614
5.53304
7.73753
25.8899
74.7897
366.712
860.561
942.991
1.01692
1.02335
1.02866
1
1
1
1.00009
1.00077
1.002
1.00848
1.06611
1.40864
3.64082
187.039
582.122
733.482
836.793
918.152
942.782
1
1
1
1
1
1
1.00002
1.00008
1.00028
1.00305
1.03704
1.40424
6.91822
373.32
806.043
919.534
919.935
920.289
818.974
1
1
1
1
1
1
1
1
1.00008
1.00412
1.09709
2.51655
6.05303
5.27804
70.7439
609.33
920.289
920.381
730.109
1
1
1
1
1
1
1
1
1.00003
1.00245
1.05299
1.85869
6.29527
5.00294
2.82998
76.7046
752.605
920.364
730.092
1
1
1
1
1
1
1
1
1.00001
1.00128
1.0185
1.33684
6.26405
3.38564
2.1022
146.07
568.377
885.495
775.51
1
1
1
1
1
1
1
1
1
1.00057
1.00737
1.10463
2.46084
1.00788
2.02781
282.847
565.361
604.91
852.576
1
1
1
1
1.00001
1.00003
1.00003
1
1
1.00007
1.00366
1.03226
1.00345
1.00664
8.33441
297.142
302.796
255.597
852.333
1
1
1
1
1
1.00001
1.00088
1.00145
1.00025
1.00004
1.00049
1.00713
1.00228
1.00428
5.39564
122.173
239.799
110.252
512.032
1
1
1
1
1
1.00002
1.00102
1.00156
1.00135
1.00004
1.00022
1.00185
1.00208
1.00226
1.05752
51.4097
240.879
65.2129
63.5214
1
1
1
1
1
1
1
1.00082
1.00185
1.00035
1.00022
1.00023
1.00237
1.00409
1.31999
32.1345
171.566
62.8691
62.8691
1
1
1
1
1
1.0001
1.00026
1.00075
1.00185
1.00151
1.00022
1.00023
1.00331
1.09751
2.64277
31.7077
126.249
268.307
62.8691
1
1
1
1
1
1.00045
1.00151
1.00158
1.00185
1.00185
1.00023
1.00036
1.0031
1.09112
4.10081
158.777
310.237
322.947
133.444
1
1
1
1
1
1.00035
1.00143
1.00185
1.00185
1.00185
1.00173
1.00116
1.00238
1.03874
3.9209
165.324
322.947
323.314
323.31
1
1
1
1
1
1
1.00014
1.00133
1.00182
1.00079
1.00076
1.0009
1.00507
1.07566
1.11501
1.15632
126.56
323.309
323.314
1
1
1
1
1
1.00001
1.00002
1.00037
1.00094
1.00074
1.00043
1.00057
1.03438
1.22827
1.09182
1.00583
1.14042
158.085
323.309
1
1
1
1
1.00001
1.00016
1.00023
1.00024
1.00056
1.00068
1.00037
1.00046
1.08828
1.2347
1.03221
1.00266
1.00281
10.9185
323.169
1
1
1
1
1.00001
1.00015
1.00026
1.00037
1.00053
1.00031
1.00032
1.00107
1.13667
1.22529
1.0045
1.00252
1.00253
7.54714
268.791
1
1
1
1
1.00001
1.00002
1.00009
1.00035
1.0003
1.00006
1.00036
1.00664
1.0906
1.0388
1.00223
1.00205
1.00261
9.03371
151.92
1
1
1
1
1
1.00001
1.00004
1.00009
1.00005
1.00004
1.00063
1.00525
1.00699
1.00203
1.00132
1.0014
1.00322
101.256
222.187
1
1
1
1
1.00001
1.00001
1.00001
1.00001
1.00003
1.00003
1.00018
1.0002
1.00035
1.00103
1.00111
1.00248
1.01449
165.73
222.187
1
1
1
1
1
1.00001
1.00001
1.00114
1.00338
1.00241
1.0002
1.01296
1.03747
1.0165
1.00216
2.1124
1.92413
59.1723
222.187
1
1
1
1
1
1
1.00004
1.00035
1.00306
1.00311
1.07792
1.16295
1.16154
1.01567
1.01403
11.9355
8.03945
2.22849
211.539
1
1
1
1
1
1
1.00006
1.00015
1.00024
1.00005
1.05772
1.0586
1.00147
1.0021
7.84212
13.5772
11.9736
1.89429
195.663
1
1
1
1
1
1
1.00001
1.00008
1.00006
1.00005
1.00121
1.00016
1
1.03718
13.5536
13.5772
9.54637
1.64555
167.785
1
1
1
1
1
1
1
1
1.00001
1.00001
1
1
1
4.74342
13.4833
13.5772
6.16375
1.53728
174.728
1
1
1
1
1
1
1
1
1
1
1
1
1
3.72227
13.1475
10.2748
1.75146
1.52811
181.446
1
1
1
1
1
1
1
1
1
1
1
1
1
2.55954
12.7408
5.09134
1.52964
1.5319
181.417
1
1
1
1
1
1
1
1
1
1
1
1
1
4.37645
12.3994
9.9661
1.62665
1.52623
149.387
1
1
1
1
1
1
1
1
1
1
1
1
1
1.79952
12.1087
12.0879
2.56281
1.52441
68.218
1
1
1
1
1
1
1
1
1
1
1
1
1
1
4.95314
11.4164
4.53949
1.53236
87.6478
)
;

boundaryField
{
    leftWall
    {
        type            calculated;
        value           nonuniform List<scalar> 
50
(
1000
1000
1000
1000
1000
1000
1000
1000
999.996
872.421
88.1054
1
1
1
1
1
1
1
1
1
1
1
1
1
1
1
1
1
1
1
1
1
1
1
1
1
1
1
1
1
1
1
1
1
1
1
1
1
1
1
)
;
    }
    rightWall
    {
        type            calculated;
        value           nonuniform List<scalar> 
50
(
448.116
659.34
659.852
659.224
654.025
430.156
99.6596
566.131
805.896
813.981
815.911
884.618
930.801
942.678
943.511
943.592
943.592
943.592
943.391
942.991
942.782
818.974
730.109
730.092
775.51
852.576
852.333
512.032
63.5214
62.8691
62.8691
133.444
323.31
323.314
323.309
323.169
268.791
151.92
222.187
222.187
222.187
211.539
195.663
167.785
174.728
181.446
181.417
149.387
68.218
87.6478
)
;
    }
    lowerWall
    {
        type            calculated;
        value           nonuniform List<scalar> 
62
(
1000
1000
1000
1000
1000
1000
1000
1000
1000
1000
1000
1000
1000
1000
1000
1000
1000
1000
996.539
901.256
901.207
966.158
998.629
998.629
998.631
998.633
998.892
999.641
999.661
999.664
999.669
999.526
999.525
999.525
999.637
5.96785
13.5539
361.103
650.162
657.861
738.018
966.527
999.972
5.96785
5.20692
4.67117
4.55863
3.65538
1.11033
1.00211
1.00088
1.00076
1.00077
1.04643
1.27851
6.32398
111.748
226.907
316.499
436.358
528.805
448.116
)
;
    }
    atmosphere
    {
        type            calculated;
        value           nonuniform List<scalar> 
46
(
1
1
1
1
1
1
1
1
1
1
1
1
1
1
1
1
1
1
1
1
1
1
1
1
1
1
1
1
1
1
1
1
1
1
1
1
1
1
1
1
1
1
1
4.53949
1.53236
87.6478
)
;
    }
    defaultFaces
    {
        type            empty;
    }
}


// ************************************************************************* //
